 
             +---------------------------------------------------+
             |                                                   |
             |                   WANNIER90                       |
             |                                                   |
             +---------------------------------------------------+
             |                                                   |
             |        Welcome to the Maximally-Localized         |
             |        Generalized Wannier Functions code         |
             |            http://www.wannier.org                 |
             |                                                   |
             |  Wannier90 v2.x Authors:                          |
             |    Arash A. Mostofi  (Imperial College London)    |
             |    Giovanni Pizzi    (EPFL)                       |
             |    Ivo Souza         (Universidad del Pais Vasco) |
             |    Jonathan R. Yates (University of Oxford)       |
             |                                                   |
             |  Wannier90 Contributors:                          |
             |    Young-Su Lee       (KIST, S. Korea)            |
             |    Matthew Shelley    (Imperial College London)   |
             |    Nicolas Poilvert   (Penn State University)     |
             |    Raffaello Bianco   (Paris 6 and CNRS)          |
             |    Gabriele Sclauzero (ETH Zurich)                |
             |    David Strubbe (MIT, USA)                       |
             |    Rei Sakuma (Lund University, Sweden)           |
             |    Yusuke Nomura (U. Tokyo, Japan)                |
             |    Takashi Koretsune (Riken, Japan)               |
             |    Yoshiro Nohara (ASMS Co. Ltd., Japan)          |
             |    Ryotaro Arita (Riken, Japan)                   |
             |    Lorenzo Paulatto (UPMC Paris)                  |
             |    Florian Thole (ETH Zurich)                     |
             |    Pablo Garcia Fernandez (Unican, Spain)         |
             |    Dominik Gresch (ETH Zurich)                    |
             |    Samuel Ponce (University of Oxford)            |
             |    Marco Gibertini (EPFL)                         |
             |    Christian Stieger (ETHZ, CH)                   |
             |    Stepan Tsirkin (Universidad del Pais Vasco)    |
             |                                                   |
             |  Wannier77 Authors:                               |
             |    Nicola Marzari    (EPFL)                       |
             |    Ivo Souza         (Universidad del Pais Vasco) |
             |    David Vanderbilt  (Rutgers University)         |
             |                                                   |
             |  Please cite                                      |
             |                                                   |
             |  [ref] "An updated version of Wannier90:          |
             |        A Tool for Obtaining Maximally Localised   |
             |        Wannier Functions", A. A. Mostofi,         |
             |        J. R. Yates, G. Pizzi, Y. S. Lee,          |
             |        I. Souza, D. Vanderbilt and N. Marzari,    |
             |        Comput. Phys. Commun. 185, 2309 (2014)     |
             |        http://dx.doi.org/10.1016/j.cpc.2014.05.003|
             |                                                   |
             |  in any publications arising from the use of      |
             |  this code. For the method please cite            |
             |                                                   |
             |  [ref] "Maximally Localized Generalised Wannier   |
             |         Functions for Composite Energy Bands"     |
             |         N. Marzari and D. Vanderbilt              |
             |         Phys. Rev. B 56 12847 (1997)              |
             |                                                   |
             |  [ref] "Maximally Localized Wannier Functions     |
             |         for Entangled Energy Bands"               |
             |         I. Souza, N. Marzari and D. Vanderbilt    |
             |         Phys. Rev. B 65 035109 (2001)             |
             |                                                   |
             |                                                   |
             | Copyright (c) 1996-2017                           |
             |        Arash A. Mostofi, Jonathan R. Yates,       |
             |        Young-Su Lee, Giovanni Pizzi, Ivo Souza,   |
             |        David Vanderbilt and Nicola Marzari        |
             |                                                   |
             |        Release: 2.1.0   13th January 2017         |
             |                                                   |
             | This program is free software; you can            |
             | redistribute it and/or modify it under the terms  |
             | of the GNU General Public License as published by |
             | the Free Software Foundation; either version 2 of |
             | the License, or (at your option) any later version|
             |                                                   |
             | This program is distributed in the hope that it   |
             | will be useful, but WITHOUT ANY WARRANTY; without |
             | even the implied warranty of MERCHANTABILITY or   |
             | FITNESS FOR A PARTICULAR PURPOSE. See the GNU     |
             | General Public License for more details.          |
             |                                                   |
             | You should have received a copy of the GNU General|
             | Public License along with this program; if not,   |
             | write to the Free Software Foundation, Inc.,      |
             | 675 Mass Ave, Cambridge, MA 02139, USA.           |
             |                                                   |
             +---------------------------------------------------+
             |    Execution started on  3Aug2019 at 14:53:33     |
             +---------------------------------------------------+
 
 ******************************************************************************
 * -> Using CODATA 2006 constant values                                       *
 *    (http://physics.nist.gov/cuu/Constants/index.html)                      *
 * -> Using Bohr value from CODATA                                            *
 ******************************************************************************
 
 
                                    ------
                                    SYSTEM
                                    ------
 
                              Lattice Vectors (Ang)
                    a_1     3.956000   0.000000   0.000000
                    a_2     0.000000   3.956000   0.000000
                    a_3     0.000000   0.000000   3.752300
 
                   Unit Cell Volume:      58.72326  (Ang^3)
 
                        Reciprocal-Space Vectors (Ang^-1)
                    b_1     1.588267   0.000000   0.000000
                    b_2     0.000000   1.588267   0.000000
                    b_3     0.000000   0.000000   1.674489
  
 *----------------------------------------------------------------------------*
 |   Site       Fractional Coordinate          Cartesian Coordinate (Ang)     |
 +----------------------------------------------------------------------------+
 | 1    1   0.00000   0.00000   0.00000   |    0.00000   0.00000   0.00000    |
 | 2    1   0.50000   0.50000   0.50000   |    1.97800   1.97800   1.87615    |
 | 3    1   0.50000   0.50000   0.00000   |    1.97800   1.97800   0.00000    |
 | 4    1   0.50000   0.00000   0.50000   |    1.97800   0.00000   1.87615    |
 | 5    1   0.00000   0.50000   0.50000   |    0.00000   1.97800   1.87615    |
 *----------------------------------------------------------------------------*
  
                                ------------
                                K-POINT GRID
                                ------------
  
             Grid size =  9 x  9 x 10      Total points =  810
  
  
 *---------------------------------- MAIN ------------------------------------*
 |  Number of Wannier Functions               :                 2             |
 |  Number of input Bloch states              :                 5             |
 |  Output verbosity (1=low, 5=high)          :                 1             |
 |  Timing Level (1=low, 5=high)              :                 1             |
 |  Optimisation (0=memory, 3=speed)          :                 3             |
 |  Length Unit                               :               Ang             |
 |  Post-processing setup (write *.nnkp)      :                 F             |
 |  Using Gamma-only branch of algorithms     :                 F             |
 *----------------------------------------------------------------------------*
 *------------------------------- WANNIERISE ---------------------------------*
 |  Total number of iterations                :             10000             |
 |  Number of CG steps before reset           :                 5             |
 |  Trial step length for line search         :             2.000             |
 |  Convergence tolerence                     :         0.100E-09             |
 |  Convergence window                        :                 3             |
 |  Iterations between writing output         :               100             |
 |  Iterations between backing up to disk     :               100             |
 |  Write r^2_nm to file                      :                 F             |
 |  Write xyz WF centres to file              :                 T             |
 |  Write on-site energies <0n|H|0n> to file  :                 F             |
 |  Use guiding centre to control phases      :                 T             |
 |  Use phases for initial projections        :                 F             |
 |  Iterations before starting guiding centres:                 0             |
 |  Iterations between using guiding centres  :                 1             |
 *----------------------------------------------------------------------------*
 *------------------------------- DISENTANGLE --------------------------------*
 |  Using band disentanglement                :                 T             |
 |  Total number of iterations                :             10000             |
 |  Mixing ratio                              :             0.500             |
 |  Convergence tolerence                     :         1.000E-10             |
 |  Convergence window                        :                 3             |
 *----------------------------------------------------------------------------*
 *-------------------------------- PLOTTING ----------------------------------*
 |  Plotting interpolated bandstructure       :                 T             |
 |   Number of K-path sections                :                 7             |
 |   Divisions along first K-path section     :                50             |
 |   Output format                            :           gnuplot             |
 |   Output mode                              :               s-k             |
 *----------------------------------------------------------------------------*
 |   K-space path sections:                                                   |
 |    From:  G    0.000  0.000  0.000     To:  X    0.500  0.000  0.000       |
 |    From:  X    0.500  0.000  0.000     To:  M    0.500  0.500  0.000       |
 |    From:  M    0.500  0.500  0.000     To:  G    0.000  0.000  0.000       |
 |    From:  G    0.000  0.000  0.000     To:  Z    0.000  0.000 -0.500       |
 |    From:  Z    0.000  0.000 -0.500     To:  R    0.500  0.000 -0.500       |
 |    From:  R    0.500  0.000 -0.500     To:  A    0.500  0.500 -0.500       |
 |    From:  A    0.500  0.500 -0.500     To:  Z    0.000  0.000 -0.500       |
 *----------------------------------------------------------------------------*
 |  Plotting Hamiltonian in WF basis          :                 T             |
 *----------------------------------------------------------------------------*
 Time to read parameters        0.044 (sec)

 *---------------------------------- K-MESH ----------------------------------*
 +----------------------------------------------------------------------------+
 |                    Distance to Nearest-Neighbour Shells                    |
 |                    ------------------------------------                    |
 |          Shell             Distance (Ang^-1)          Multiplicity         |
 |          -----             -----------------          ------------         |
 |             1                   0.167449                      2            |
 |             2                   0.176474                      4            |
 |             3                   0.243274                      8            |
 |             4                   0.249572                      4            |
 |             5                   0.300542                      8            |
 |             6                   0.334898                      2            |
 |             7                   0.352948                      4            |
 |             8                   0.378549                      8            |
 |             9                   0.390655                      8            |
 |            10                   0.394608                      8            |
 |            11                   0.417663                      8            |
 |            12                   0.428666                     16            |
 +----------------------------------------------------------------------------+
 | The b-vectors are chosen automatically                                     |
 | The following shells are used:   1,  2                                     |
 +----------------------------------------------------------------------------+
 |                        Shell   # Nearest-Neighbours                        |
 |                        -----   --------------------                        |
 |                          1               2                                 |
 |                          2               4                                 |
 +----------------------------------------------------------------------------+
 | Completeness relation is fully satisfied [Eq. (B1), PRB 56, 12847 (1997)]  |
 +----------------------------------------------------------------------------+
 |                  b_k Vectors (Ang^-1) and Weights (Ang^2)                  |
 |                  ----------------------------------------                  |
 |            No.         b_k(x)      b_k(y)      b_k(z)        w_b           |
 |            ---        --------------------------------     --------        |
 |             1         0.000000    0.000000    0.167449    17.832217        |
 |             2         0.000000    0.000000   -0.167449    17.832217        |
 |             3         0.000000    0.176474    0.000000    16.054911        |
 |             4         0.176474    0.000000    0.000000    16.054911        |
 |             5         0.000000   -0.176474    0.000000    16.054911        |
 |             6        -0.176474    0.000000    0.000000    16.054911        |
 +----------------------------------------------------------------------------+
 |                           b_k Directions (Ang^-1)                          |
 |                           -----------------------                          |
 |            No.           x           y           z                         |
 |            ---        --------------------------------                     |
 |             1         0.000000    0.000000    0.167449                     |
 |             2         0.000000    0.176474    0.000000                     |
 |             3         0.176474    0.000000    0.000000                     |
 +----------------------------------------------------------------------------+
  
 *============================================================================*
 |                              MEMORY ESTIMATE                               |
 |         Maximum RAM allocated during each phase of the calculation         |
 *============================================================================*
 |                        Disentanglement            3.12 Mb                  |
 |                            Wannierise:            1.56 Mb                  |
 |                          plot_wannier:            1.56 Mb                  |
 *----------------------------------------------------------------------------*
  
 Starting a new Wannier90 calculation ...

 Time to get kmesh              0.140 (sec)

 Reading overlaps from w2w.mmn    : LaNiO3

 Reading projections from w2w.amn : LaNiO3

 Time to read overlaps          0.082 (sec)

 *------------------------------- DISENTANGLE --------------------------------*
 +----------------------------------------------------------------------------+
 |                              Energy  Windows                               |
 |                              ---------------                               |
 |                   Outer:   -1.84429  to    3.01641  (eV)                   |
 |                   Inner:    0.00000  to    3.50000  (eV)                   |
 +----------------------------------------------------------------------------+
   Number of target bands to extract:    2

                   Unitarised projection of Wannier functions                  
                   ------------------------------------------                  
   A_mn = <psi_m|g_n> --> S = A.A^+ --> U = S^-1/2.A
   In dis_project... done
   Using an inner window (linner = T)
   In dis_proj_froz... done

                   Extraction of optimally-connected subspace                  
                   ------------------------------------------                  
 +---------------------------------------------------------------------+<-- DIS
 |  Iter     Omega_I(i-1)      Omega_I(i)      Delta (frac.)    Time   |<-- DIS
 +---------------------------------------------------------------------+<-- DIS
       1       8.55794018       8.17880585       4.636E-02      0.28    <-- DIS
       2       8.21261206       8.10886058       1.279E-02      0.29    <-- DIS
       3       8.13605889       8.06733708       8.519E-03      0.29    <-- DIS
       4       8.08479294       8.04171068       5.357E-03      0.30    <-- DIS
       5       8.05137470       8.02561932       3.209E-03      0.30    <-- DIS
       6       8.02998014       8.01540708       1.818E-03      0.31    <-- DIS
       7       8.01647808       8.00887840       9.489E-04      0.31    <-- DIS
       8       8.00807275       8.00468280       4.235E-04      0.32    <-- DIS
       9       8.00292011       8.00197629       1.179E-04      0.32    <-- DIS
      10       7.99982262       8.00022546      -5.035E-05      0.32    <-- DIS
      11       7.99801067       7.99909048      -1.350E-04      0.33    <-- DIS
      12       7.99699364       7.99835354      -1.700E-04      0.33    <-- DIS
      13       7.99646093       7.99787446      -1.767E-04      0.34    <-- DIS
      14       7.99621740       7.99756270      -1.682E-04      0.34    <-- DIS
      15       7.99614151       7.99735967      -1.523E-04      0.35    <-- DIS
      16       7.99615841       7.99722736      -1.337E-04      0.35    <-- DIS
      17       7.99622271       7.99714109      -1.148E-04      0.35    <-- DIS
      18       7.99630746       7.99708482      -9.721E-05      0.36    <-- DIS
      19       7.99639718       7.99704810      -8.139E-05      0.36    <-- DIS
      20       7.99648346       7.99702413      -6.761E-05      0.37    <-- DIS
      21       7.99656210       7.99700848      -5.582E-05      0.37    <-- DIS
      22       7.99663144       7.99699826      -4.587E-05      0.38    <-- DIS
      23       7.99669123       7.99699158      -3.756E-05      0.38    <-- DIS
      24       7.99674197       7.99698722      -3.067E-05      0.38    <-- DIS
      25       7.99678455       7.99698437      -2.499E-05      0.39    <-- DIS
      26       7.99681998       7.99698251      -2.032E-05      0.39    <-- DIS
      27       7.99684927       7.99698129      -1.651E-05      0.40    <-- DIS
      28       7.99687337       7.99698049      -1.339E-05      0.40    <-- DIS
      29       7.99689313       7.99697997      -1.086E-05      0.41    <-- DIS
      30       7.99690927       7.99697963      -8.798E-06      0.41    <-- DIS
      31       7.99692243       7.99697941      -7.125E-06      0.41    <-- DIS
      32       7.99693314       7.99697926      -5.767E-06      0.42    <-- DIS
      33       7.99694184       7.99697917      -4.667E-06      0.42    <-- DIS
      34       7.99694891       7.99697910      -3.776E-06      0.43    <-- DIS
      35       7.99695464       7.99697906      -3.054E-06      0.43    <-- DIS
      36       7.99695928       7.99697904      -2.470E-06      0.44    <-- DIS
      37       7.99696305       7.99697902      -1.997E-06      0.44    <-- DIS
      38       7.99696609       7.99697901      -1.615E-06      0.45    <-- DIS
      39       7.99696856       7.99697900      -1.306E-06      0.45    <-- DIS
      40       7.99697055       7.99697899      -1.056E-06      0.45    <-- DIS
      41       7.99697216       7.99697899      -8.537E-07      0.46    <-- DIS
      42       7.99697347       7.99697899      -6.903E-07      0.46    <-- DIS
      43       7.99697452       7.99697899      -5.581E-07      0.47    <-- DIS
      44       7.99697538       7.99697899      -4.513E-07      0.47    <-- DIS
      45       7.99697607       7.99697899      -3.649E-07      0.48    <-- DIS
      46       7.99697663       7.99697899      -2.950E-07      0.48    <-- DIS
      47       7.99697708       7.99697899      -2.385E-07      0.48    <-- DIS
      48       7.99697744       7.99697899      -1.929E-07      0.49    <-- DIS
      49       7.99697774       7.99697899      -1.560E-07      0.49    <-- DIS
      50       7.99697798       7.99697899      -1.261E-07      0.50    <-- DIS
      51       7.99697817       7.99697898      -1.020E-07      0.50    <-- DIS
      52       7.99697833       7.99697898      -8.249E-08      0.50    <-- DIS
      53       7.99697845       7.99697898      -6.671E-08      0.51    <-- DIS
      54       7.99697855       7.99697898      -5.395E-08      0.51    <-- DIS
      55       7.99697864       7.99697898      -4.364E-08      0.52    <-- DIS
      56       7.99697870       7.99697898      -3.529E-08      0.52    <-- DIS
      57       7.99697876       7.99697898      -2.855E-08      0.53    <-- DIS
      58       7.99697880       7.99697898      -2.309E-08      0.53    <-- DIS
      59       7.99697884       7.99697898      -1.868E-08      0.54    <-- DIS
      60       7.99697886       7.99697898      -1.511E-08      0.54    <-- DIS
      61       7.99697889       7.99697898      -1.222E-08      0.54    <-- DIS
      62       7.99697891       7.99697898      -9.885E-09      0.55    <-- DIS
      63       7.99697892       7.99697898      -7.997E-09      0.55    <-- DIS
      64       7.99697893       7.99697898      -6.469E-09      0.56    <-- DIS
      65       7.99697894       7.99697898      -5.234E-09      0.56    <-- DIS
      66       7.99697895       7.99697898      -4.234E-09      0.57    <-- DIS
      67       7.99697896       7.99697898      -3.426E-09      0.57    <-- DIS
      68       7.99697896       7.99697898      -2.772E-09      0.57    <-- DIS
      69       7.99697897       7.99697898      -2.242E-09      0.58    <-- DIS
      70       7.99697897       7.99697898      -1.814E-09      0.58    <-- DIS
      71       7.99697897       7.99697898      -1.468E-09      0.59    <-- DIS
      72       7.99697898       7.99697898      -1.188E-09      0.59    <-- DIS
      73       7.99697898       7.99697898      -9.611E-10      0.60    <-- DIS
      74       7.99697898       7.99697898      -7.777E-10      0.60    <-- DIS
      75       7.99697898       7.99697898      -6.293E-10      0.60    <-- DIS
      76       7.99697898       7.99697898      -5.093E-10      0.61    <-- DIS
      77       7.99697898       7.99697898      -4.121E-10      0.61    <-- DIS
      78       7.99697898       7.99697898      -3.335E-10      0.62    <-- DIS
      79       7.99697898       7.99697898      -2.699E-10      0.62    <-- DIS
      80       7.99697898       7.99697898      -2.184E-10      0.63    <-- DIS
      81       7.99697898       7.99697898      -1.768E-10      0.63    <-- DIS
      82       7.99697898       7.99697898      -1.430E-10      0.63    <-- DIS
      83       7.99697898       7.99697898      -1.158E-10      0.64    <-- DIS
      84       7.99697898       7.99697898      -9.370E-11      0.64    <-- DIS
      85       7.99697898       7.99697898      -7.583E-11      0.65    <-- DIS
      86       7.99697898       7.99697898      -6.138E-11      0.65    <-- DIS

             <<<      Delta < 1.000E-10  over  3 iterations     >>>
             <<< Disentanglement convergence criteria satisfied >>>

        Final Omega_I     7.99697898 (Ang^2)

 +----------------------------------------------------------------------------+

 Time to disentangle bands      0.391 (sec)

 Writing checkpoint file w2w.chk... done

 
 *------------------------------- WANNIERISE ---------------------------------*
 +--------------------------------------------------------------------+<-- CONV
 | Iter  Delta Spread     RMS Gradient      Spread (Ang^2)      Time  |<-- CONV
 +--------------------------------------------------------------------+<-- CONV
 
 ------------------------------------------------------------------------------
 Initial State
  WF centre and spread    1  ( -1.978000, -1.978000, -1.876150 )     3.67647368
  WF centre and spread    2  ( -1.978000, -1.978000, -1.876150 )     4.41941456
  Sum of centres and spreads ( -3.956000, -3.956000, -3.752300 )     8.09588824
 
      0     0.810E+01     0.0000000000        8.0958882377       0.66  <-- CONV
        O_D=      0.0000000 O_OD=      0.0989092 O_TOT=      8.0958882 <-- SPRD
 ------------------------------------------------------------------------------
 Cycle:      1
  WF centre and spread    1  ( -1.978000, -1.978000, -1.876150 )     3.67640099
  WF centre and spread    2  ( -1.978000, -1.978000, -1.876150 )     4.41873852
  Sum of centres and spreads ( -3.956000, -3.956000, -3.752300 )     8.09513951
 
      1    -0.749E-03     0.0222790537        8.0951395106       0.68  <-- CONV
        O_D=      0.0000000 O_OD=      0.0981605 O_TOT=      8.0951395 <-- SPRD
 Delta: O_D=  0.1141244E-09 O_OD= -0.7487272E-03 O_TOT= -0.7487271E-03 <-- DLTA
 ------------------------------------------------------------------------------

             <<<     Delta < 1.000E-10  over  3 iterations     >>>
             <<< Wannierisation convergence criteria satisfied >>>

 Final State
  WF centre and spread    1  ( -1.978000, -1.978000, -1.876150 )     3.68138952
  WF centre and spread    2  ( -1.978000, -1.978000, -1.876150 )     4.41347813
  Sum of centres and spreads ( -3.956000, -3.956000, -3.752300 )     8.09486765
 
         Spreads (Ang^2)       Omega I      =     7.996978985
        ================       Omega D      =     0.000000000
                               Omega OD     =     0.097888667
    Final Spread (Ang^2)       Omega Total  =     8.094867652
 ------------------------------------------------------------------------------

 Wannier centres written to file w2w_centres.xyz

 ------------------------------------------------------------------------------
          Projection of Bands in Outer Window on all Wannier Functions
         --------------------------------------------------------------
                    Kpt  Band      Eigval      |Projection|^2
                 -----------------------------------------------
                     1     1      -1.121740      0.00000000
                     1     2      -1.053049      0.00000000
                     1     3      -1.053049      0.00000000
                     1     4      -1.040282      1.00000000
                     1     5      -0.970453      1.00000000
                     2     1      -1.624033      0.02312880
                     2     2      -1.040102      1.00000000
                     2     3      -0.955804      0.00000000
                     2     4      -0.955804      0.00000000
                     2     5      -0.457814      0.97687120
                     3     1      -1.736534      0.00000000
                     3     2      -1.039700      1.00000000
                     3     3      -0.674133      0.00000000
                     3     4      -0.674133      0.00000000
                     3     5       0.082970      1.00000000
                     4     1      -1.837919      0.00000000
                     4     2      -1.038432      1.00000000
                     4     3      -0.369503      0.00000000
                     4     4      -0.369503      0.00000000
                     4     5       0.507035      1.00000000
                     5     1      -1.844288      0.00000000
                     5     2      -1.035395      1.00000000
                     5     3      -0.156514      0.00000000
                     5     4      -0.156514      0.00000000
                     5     5       0.770416      1.00000000
                     6     1      -1.839562      0.00000000
                     6     2      -1.035080      1.00000000
                     6     3      -0.079888      0.00000000
                     6     4      -0.079888      0.00000000
                     6     5       0.860732      1.00000000
                     7     1      -1.844288      0.00000000
                     7     2      -1.035395      1.00000000
                     7     3      -0.156514      0.00000000
                     7     4      -0.156514      0.00000000
                     7     5       0.770416      1.00000000
                     8     1      -1.837919      0.00000000
                     8     2      -1.038432      1.00000000
                     8     3      -0.369503      0.00000000
                     8     4      -0.369503      0.00000000
                     8     5       0.507035      1.00000000
                     9     1      -1.736534      0.00000000
                     9     2      -1.039700      1.00000000
                     9     3      -0.674133      0.00000000
                     9     4      -0.674133      0.00000000
                     9     5       0.082970      1.00000000
                    10     1      -1.624033      0.02312880
                    10     2      -1.040102      1.00000000
                    10     3      -0.955804      0.00000000
                    10     4      -0.955804      0.00000000
                    10     5      -0.457814      0.97687120
                    11     1      -1.615553      0.00000000
                    11     2      -1.076962      0.00000000
                    11     3      -1.033378      0.00000000
                    11     4      -0.991215      1.00000000
                    11     5      -0.404556      1.00000000
                    12     1      -1.448509      0.00000000
                    12     2      -1.294837      0.08710236
                    12     3      -0.966023      0.00000000
                    12     4      -0.740616      0.91316816
                    12     5      -0.141719      0.99972948
                    13     1      -1.391729      0.00000000
                    13     2      -1.001771      0.26452337
                    13     3      -0.699411      0.00000000
                    13     4      -0.623112      0.73547663
                    13     5       0.356725      1.00000000
                    14     1      -1.423719      0.00000000
                    14     2      -0.808913      0.75541662
                    14     3      -0.420080      0.24458338
                    14     4      -0.395170      0.00000000
                    14     5       0.769640      1.00000000
                    15     1      -1.449849      0.00000000
                    15     2      -0.758850      0.94781909
                    15     3      -0.197719      0.05218091
                    15     4      -0.182622      0.00000000
                    15     5       1.021567      1.00000000
                    16     1      -1.457871      0.00000000
                    16     2      -0.748155      1.00000000
                    16     3      -0.110812      0.00000000
                    16     4      -0.107393      0.00000000
                    16     5       1.105404      1.00000000
                    17     1      -1.449849      0.00000000
                    17     2      -0.758850      0.94781909
                    17     3      -0.197719      0.05218091
                    17     4      -0.182622      0.00000000
                    17     5       1.021567      1.00000000
                    18     1      -1.423719      0.00000000
                    18     2      -0.808913      0.75541662
                    18     3      -0.420080      0.24458338
                    18     4      -0.395170      0.00000000
                    18     5       0.769640      1.00000000
                    19     1      -1.391729      0.00000000
                    19     2      -1.001771      0.26452337
                    19     3      -0.699411      0.00000000
                    19     4      -0.623112      0.73547663
                    19     5       0.356725      1.00000000
                    20     1      -1.448509      0.00000000
                    20     2      -1.294837      0.08710236
                    20     3      -0.966023      0.00000000
                    20     4      -0.740616      0.91316816
                    20     5      -0.141719      0.99972948
                    21     1      -1.479406      0.00000000
                    21     2      -0.987407      1.00000000
                    21     3      -0.876321      0.00000000
                    21     4      -0.870033      0.00000000
                    21     5       0.152113      1.00000000
                    22     1      -1.224675      0.00000000
                    22     2      -1.063543      0.12272213
                    22     3      -0.882549      0.00000000
                    22     4      -0.684002      0.87727787
                    22     5       0.386324      1.00000000
                    23     1      -1.024595      0.00000000
                    23     2      -0.997193      0.03150092
                    23     3      -0.751220      0.00000000
                    23     4      -0.541944      0.96849908
                    23     5       0.899113      1.00000000
                    24     1      -1.050372      0.00000000
                    24     2      -0.681487      0.16260966
                    24     3      -0.456650      0.83739034
                    24     4      -0.451656      0.00000000
                    24     5       1.362449      1.00000000
                    25     1      -1.077665      0.00000000
                    25     2      -0.509896      0.84392191
                    25     3      -0.289786      0.15607809
                    25     4      -0.241708      0.00000000
                    25     5       1.645310      1.00000000
                    26     1      -1.086347      0.00000000
                    26     2      -0.486847      1.00000000
                    26     3      -0.186485      0.00000000
                    26     4      -0.168255      0.00000000
                    26     5       1.736996      1.00000000
                    27     1      -1.077665      0.00000000
                    27     2      -0.509896      0.84392191
                    27     3      -0.289786      0.15607809
                    27     4      -0.241708      0.00000000
                    27     5       1.645310      1.00000000
                    28     1      -1.050372      0.00000000
                    28     2      -0.681487      0.16260966
                    28     3      -0.456650      0.83739034
                    28     4      -0.451656      0.00000000
                    28     5       1.362449      1.00000000
                    29     1      -1.024595      0.00000000
                    29     2      -0.997193      0.03150092
                    29     3      -0.751220      0.00000000
                    29     4      -0.541944      0.96849908
                    29     5       0.899113      1.00000000
                    30     1      -1.224675      0.00000000
                    30     2      -1.063543      0.12272213
                    30     3      -0.882549      0.00000000
                    30     4      -0.684002      0.87727787
                    30     5       0.386324      1.00000000
                    31     1      -1.521841      0.00000000
                    31     2      -0.985307      1.00000000
                    31     3      -0.639971      0.00000000
                    31     4      -0.632820      0.00000000
                    31     5       0.559727      1.00000000
                    32     1      -1.226258      0.00000000
                    32     2      -0.818411      0.49633270
                    32     3      -0.658221      0.00000000
                    32     4      -0.630040      0.50366730
                    32     5       0.791578      1.00000000
                    33     1      -0.841336      0.00000000
                    33     2      -0.826996      0.02547189
                    33     3      -0.707113      0.00000000
                    33     4      -0.497632      0.97452811
                    33     5       1.351655      1.00000000
                    34     1      -0.774890      0.00000000
                    34     2      -0.701938      0.01387093
                    34     3      -0.503749      0.00000000
                    34     4      -0.419845      0.98612907
                    34     5       1.917596      1.00000000
                    35     1      -0.804959      0.00000000
                    35     2      -0.427685      0.42275889
                    35     3      -0.366331      0.57724111
                    35     4      -0.296252      0.00000000
                    35     5       2.291617      1.00000000
                    36     1      -0.815935      0.00000000
                    36     2      -0.387424      1.00000000
                    36     3      -0.268753      0.00000000
                    36     4      -0.224323      0.00000000
                    36     5       2.416005      1.00000000
                    37     1      -0.804959      0.00000000
                    37     2      -0.427685      0.42275889
                    37     3      -0.366331      0.57724111
                    37     4      -0.296252      0.00000000
                    37     5       2.291617      1.00000000
                    38     1      -0.774890      0.00000000
                    38     2      -0.701938      0.01387093
                    38     3      -0.503749      0.00000000
                    38     4      -0.419845      0.98612907
                    38     5       1.917596      1.00000000
                    39     1      -0.841336      0.00000000
                    39     2      -0.826996      0.02547189
                    39     3      -0.707113      0.00000000
                    39     4      -0.497632      0.97452811
                    39     5       1.351655      1.00000000
                    40     1      -1.226258      0.00000000
                    40     2      -0.818411      0.49633270
                    40     3      -0.658221      0.00000000
                    40     4      -0.630040      0.50366730
                    40     5       0.791578      1.00000000
                    41     1      -1.569340      0.00000000
                    41     2      -0.983925      1.00000000
                    41     3      -0.501725      0.00000000
                    41     4      -0.490013      0.00000000
                    41     5       0.770200      1.00000000
                    42     1      -1.250441      0.00000000
                    42     2      -0.735974      0.96198533
                    42     3      -0.541943      0.03801467
                    42     4      -0.515968      0.00000000
                    42     5       0.999921      1.00000000
                    43     1      -0.854507      0.00000000
                    43     2      -0.648128      0.01988265
                    43     3      -0.572520      0.00000000
                    43     4      -0.488871      0.98011735
                    43     5       1.586134      1.00000000
                    44     1      -0.665922      0.00160381
                    44     2      -0.627375      0.00000000
                    44     3      -0.532885      0.00000000
                    44     4      -0.397641      0.99839619
                    44     5       2.224293      1.00000000
                    45     1      -0.661057      0.00000000
                    45     2      -0.450369      0.00891555
                    45     3      -0.365208      0.99108445
                    45     4      -0.326746      0.00000000
                    45     5       2.682751      1.00000000
                    46     1      -0.671974      0.00000000
                    46     2      -0.358676      1.00000000
                    46     3      -0.318004      0.00000000
                    46     4      -0.254528      0.00000000
                    46     5       2.852133      1.00000000
                    47     1      -0.661057      0.00000000
                    47     2      -0.450369      0.00891555
                    47     3      -0.365208      0.99108445
                    47     4      -0.326746      0.00000000
                    47     5       2.682751      1.00000000
                    48     1      -0.665922      0.00160381
                    48     2      -0.627375      0.00000000
                    48     3      -0.532885      0.00000000
                    48     4      -0.397641      0.99839619
                    48     5       2.224293      1.00000000
                    49     1      -0.854507      0.00000000
                    49     2      -0.648128      0.01988265
                    49     3      -0.572520      0.00000000
                    49     4      -0.488871      0.98011735
                    49     5       1.586134      1.00000000
                    50     1      -1.250441      0.00000000
                    50     2      -0.735974      0.96198533
                    50     3      -0.541943      0.03801467
                    50     4      -0.515968      0.00000000
                    50     5       0.999921      1.00000000
                    51     1      -1.569340      0.00000000
                    51     2      -0.983925      1.00000000
                    51     3      -0.501725      0.00000000
                    51     4      -0.490013      0.00000000
                    51     5       0.770200      1.00000000
                    52     1      -1.250441      0.00000000
                    52     2      -0.735974      0.96198533
                    52     3      -0.541943      0.03801467
                    52     4      -0.515968      0.00000000
                    52     5       0.999921      1.00000000
                    53     1      -0.854507      0.00000000
                    53     2      -0.648128      0.01988265
                    53     3      -0.572520      0.00000000
                    53     4      -0.488871      0.98011735
                    53     5       1.586134      1.00000000
                    54     1      -0.665922      0.00160381
                    54     2      -0.627375      0.00000000
                    54     3      -0.532885      0.00000000
                    54     4      -0.397641      0.99839619
                    54     5       2.224293      1.00000000
                    55     1      -0.661057      0.00000000
                    55     2      -0.450369      0.00891555
                    55     3      -0.365208      0.99108445
                    55     4      -0.326746      0.00000000
                    55     5       2.682751      1.00000000
                    56     1      -0.671974      0.00000000
                    56     2      -0.358676      1.00000000
                    56     3      -0.318004      0.00000000
                    56     4      -0.254528      0.00000000
                    56     5       2.852133      1.00000000
                    57     1      -0.661057      0.00000000
                    57     2      -0.450369      0.00891555
                    57     3      -0.365208      0.99108445
                    57     4      -0.326746      0.00000000
                    57     5       2.682751      1.00000000
                    58     1      -0.665922      0.00160381
                    58     2      -0.627375      0.00000000
                    58     3      -0.532885      0.00000000
                    58     4      -0.397641      0.99839619
                    58     5       2.224293      1.00000000
                    59     1      -0.854507      0.00000000
                    59     2      -0.648128      0.01988265
                    59     3      -0.572520      0.00000000
                    59     4      -0.488871      0.98011735
                    59     5       1.586134      1.00000000
                    60     1      -1.250441      0.00000000
                    60     2      -0.735974      0.96198533
                    60     3      -0.541943      0.03801467
                    60     4      -0.515968      0.00000000
                    60     5       0.999921      1.00000000
                    61     1      -1.521841      0.00000000
                    61     2      -0.985307      1.00000000
                    61     3      -0.639971      0.00000000
                    61     4      -0.632820      0.00000000
                    61     5       0.559727      1.00000000
                    62     1      -1.226258      0.00000000
                    62     2      -0.818411      0.49633270
                    62     3      -0.658221      0.00000000
                    62     4      -0.630040      0.50366730
                    62     5       0.791578      1.00000000
                    63     1      -0.841336      0.00000000
                    63     2      -0.826996      0.02547189
                    63     3      -0.707113      0.00000000
                    63     4      -0.497632      0.97452811
                    63     5       1.351655      1.00000000
                    64     1      -0.774890      0.00000000
                    64     2      -0.701938      0.01387093
                    64     3      -0.503749      0.00000000
                    64     4      -0.419845      0.98612907
                    64     5       1.917596      1.00000000
                    65     1      -0.804959      0.00000000
                    65     2      -0.427685      0.42275889
                    65     3      -0.366331      0.57724111
                    65     4      -0.296252      0.00000000
                    65     5       2.291617      1.00000000
                    66     1      -0.815935      0.00000000
                    66     2      -0.387424      1.00000000
                    66     3      -0.268753      0.00000000
                    66     4      -0.224323      0.00000000
                    66     5       2.416005      1.00000000
                    67     1      -0.804959      0.00000000
                    67     2      -0.427685      0.42275889
                    67     3      -0.366331      0.57724111
                    67     4      -0.296252      0.00000000
                    67     5       2.291617      1.00000000
                    68     1      -0.774890      0.00000000
                    68     2      -0.701938      0.01387093
                    68     3      -0.503749      0.00000000
                    68     4      -0.419845      0.98612907
                    68     5       1.917596      1.00000000
                    69     1      -0.841336      0.00000000
                    69     2      -0.826996      0.02547189
                    69     3      -0.707113      0.00000000
                    69     4      -0.497632      0.97452811
                    69     5       1.351655      1.00000000
                    70     1      -1.226258      0.00000000
                    70     2      -0.818411      0.49633270
                    70     3      -0.658221      0.00000000
                    70     4      -0.630040      0.50366730
                    70     5       0.791578      1.00000000
                    71     1      -1.479406      0.00000000
                    71     2      -0.987407      1.00000000
                    71     3      -0.876321      0.00000000
                    71     4      -0.870033      0.00000000
                    71     5       0.152113      1.00000000
                    72     1      -1.224675      0.00000000
                    72     2      -1.063543      0.12272213
                    72     3      -0.882549      0.00000000
                    72     4      -0.684002      0.87727787
                    72     5       0.386324      1.00000000
                    73     1      -1.024595      0.00000000
                    73     2      -0.997193      0.03150092
                    73     3      -0.751220      0.00000000
                    73     4      -0.541944      0.96849908
                    73     5       0.899113      1.00000000
                    74     1      -1.050372      0.00000000
                    74     2      -0.681487      0.16260966
                    74     3      -0.456650      0.83739034
                    74     4      -0.451656      0.00000000
                    74     5       1.362449      1.00000000
                    75     1      -1.077665      0.00000000
                    75     2      -0.509896      0.84392191
                    75     3      -0.289786      0.15607809
                    75     4      -0.241708      0.00000000
                    75     5       1.645310      1.00000000
                    76     1      -1.086347      0.00000000
                    76     2      -0.486847      1.00000000
                    76     3      -0.186485      0.00000000
                    76     4      -0.168255      0.00000000
                    76     5       1.736996      1.00000000
                    77     1      -1.077665      0.00000000
                    77     2      -0.509896      0.84392191
                    77     3      -0.289786      0.15607809
                    77     4      -0.241708      0.00000000
                    77     5       1.645310      1.00000000
                    78     1      -1.050372      0.00000000
                    78     2      -0.681487      0.16260966
                    78     3      -0.456650      0.83739034
                    78     4      -0.451656      0.00000000
                    78     5       1.362449      1.00000000
                    79     1      -1.024595      0.00000000
                    79     2      -0.997193      0.03150092
                    79     3      -0.751220      0.00000000
                    79     4      -0.541944      0.96849908
                    79     5       0.899113      1.00000000
                    80     1      -1.224675      0.00000000
                    80     2      -1.063543      0.12272213
                    80     3      -0.882549      0.00000000
                    80     4      -0.684002      0.87727787
                    80     5       0.386324      1.00000000
                    81     1      -1.615553      0.00000000
                    81     2      -1.076962      0.00000000
                    81     3      -1.033378      0.00000000
                    81     4      -0.991215      1.00000000
                    81     5      -0.404556      1.00000000
                    82     1      -1.448509      0.00000000
                    82     2      -1.294837      0.08710236
                    82     3      -0.966023      0.00000000
                    82     4      -0.740616      0.91316816
                    82     5      -0.141719      0.99972948
                    83     1      -1.391729      0.00000000
                    83     2      -1.001771      0.26452337
                    83     3      -0.699411      0.00000000
                    83     4      -0.623112      0.73547663
                    83     5       0.356725      1.00000000
                    84     1      -1.423719      0.00000000
                    84     2      -0.808913      0.75541662
                    84     3      -0.420080      0.24458338
                    84     4      -0.395170      0.00000000
                    84     5       0.769640      1.00000000
                    85     1      -1.449849      0.00000000
                    85     2      -0.758850      0.94781909
                    85     3      -0.197719      0.05218091
                    85     4      -0.182622      0.00000000
                    85     5       1.021567      1.00000000
                    86     1      -1.457871      0.00000000
                    86     2      -0.748155      1.00000000
                    86     3      -0.110812      0.00000000
                    86     4      -0.107393      0.00000000
                    86     5       1.105404      1.00000000
                    87     1      -1.449849      0.00000000
                    87     2      -0.758850      0.94781909
                    87     3      -0.197719      0.05218091
                    87     4      -0.182622      0.00000000
                    87     5       1.021567      1.00000000
                    88     1      -1.423719      0.00000000
                    88     2      -0.808913      0.75541662
                    88     3      -0.420080      0.24458338
                    88     4      -0.395170      0.00000000
                    88     5       0.769640      1.00000000
                    89     1      -1.391729      0.00000000
                    89     2      -1.001771      0.26452337
                    89     3      -0.699411      0.00000000
                    89     4      -0.623112      0.73547663
                    89     5       0.356725      1.00000000
                    90     1      -1.448509      0.00000000
                    90     2      -1.294837      0.08710236
                    90     3      -0.966023      0.00000000
                    90     4      -0.740616      0.91316816
                    90     5      -0.141719      0.99972948
                    91     1      -1.615553      0.00000000
                    91     2      -1.076962      0.00000000
                    91     3      -1.033378      0.00000000
                    91     4      -0.991215      1.00000000
                    91     5      -0.404556      1.00000000
                    92     1      -1.448509      0.00000000
                    92     2      -1.294837      0.08710236
                    92     3      -0.966023      0.00000000
                    92     4      -0.740616      0.91316816
                    92     5      -0.141719      0.99972948
                    93     1      -1.391729      0.00000000
                    93     2      -1.001771      0.26452337
                    93     3      -0.699411      0.00000000
                    93     4      -0.623112      0.73547663
                    93     5       0.356725      1.00000000
                    94     1      -1.423719      0.00000000
                    94     2      -0.808913      0.75541662
                    94     3      -0.420080      0.24458338
                    94     4      -0.395170      0.00000000
                    94     5       0.769640      1.00000000
                    95     1      -1.449849      0.00000000
                    95     2      -0.758850      0.94781909
                    95     3      -0.197719      0.05218091
                    95     4      -0.182622      0.00000000
                    95     5       1.021567      1.00000000
                    96     1      -1.457871      0.00000000
                    96     2      -0.748155      1.00000000
                    96     3      -0.110812      0.00000000
                    96     4      -0.107393      0.00000000
                    96     5       1.105404      1.00000000
                    97     1      -1.449849      0.00000000
                    97     2      -0.758850      0.94781909
                    97     3      -0.197719      0.05218091
                    97     4      -0.182622      0.00000000
                    97     5       1.021567      1.00000000
                    98     1      -1.423719      0.00000000
                    98     2      -0.808913      0.75541662
                    98     3      -0.420080      0.24458338
                    98     4      -0.395170      0.00000000
                    98     5       0.769640      1.00000000
                    99     1      -1.391729      0.00000000
                    99     2      -1.001771      0.26452337
                    99     3      -0.699411      0.00000000
                    99     4      -0.623112      0.73547663
                    99     5       0.356725      1.00000000
                   100     1      -1.448509      0.00000000
                   100     2      -1.294837      0.08710236
                   100     3      -0.966023      0.00000000
                   100     4      -0.740616      0.91316816
                   100     5      -0.141719      0.99972948
                   101     1      -1.488475      0.00000000
                   101     2      -1.364277      0.03870753
                   101     3      -1.068068      0.00000000
                   101     4      -0.594154      0.96129247
                   101     5      -0.189362      1.00000000
                   102     1      -1.347248      0.01260615
                   102     2      -1.305964      0.02939596
                   102     3      -1.227930      0.00115382
                   102     4      -0.189432      0.97060404
                   102     5      -0.135229      0.98624003
                   103     1      -1.327453      0.00000000
                   103     2      -0.964119      0.07452129
                   103     3      -0.913712      0.00000000
                   103     4      -0.185414      0.92547871
                   103     5       0.460778      1.00000000
                   104     1      -1.332022      0.00000000
                   104     2      -0.642521      0.22732960
                   104     3      -0.537601      0.00000000
                   104     4      -0.164312      0.77267040
                   104     5       0.915455      1.00000000
                   105     1      -1.343788      0.00000000
                   105     2      -0.453065      0.63802210
                   105     3      -0.270000      0.00000000
                   105     4      -0.119494      0.36197790
                   105     5       1.181148      1.00000000
                   106     1      -1.348616      0.00000000
                   106     2      -0.400624      1.00000000
                   106     3      -0.172481      0.00000000
                   106     4      -0.087156      0.00000000
                   106     5       1.267117      1.00000000
                   107     1      -1.343788      0.00000000
                   107     2      -0.453065      0.63802210
                   107     3      -0.270000      0.00000000
                   107     4      -0.119494      0.36197790
                   107     5       1.181148      1.00000000
                   108     1      -1.332022      0.00000000
                   108     2      -0.642521      0.22732960
                   108     3      -0.537601      0.00000000
                   108     4      -0.164312      0.77267040
                   108     5       0.915455      1.00000000
                   109     1      -1.327453      0.00000000
                   109     2      -0.964119      0.07452129
                   109     3      -0.913712      0.00000000
                   109     4      -0.185414      0.92547871
                   109     5       0.460778      1.00000000
                   110     1      -1.347248      0.01260615
                   110     2      -1.305964      0.02939596
                   110     3      -1.227930      0.00115382
                   110     4      -0.189432      0.97060404
                   110     5      -0.135229      0.98624003
                   111     1      -1.384377      0.00000000
                   111     2      -1.079206      0.06352069
                   111     3      -0.904377      0.00000000
                   111     4      -0.528611      0.93647931
                   111     5       0.328158      1.00000000
                   112     1      -1.260105      0.00194559
                   112     2      -1.066769      0.00757890
                   112     3      -1.027836      0.02244098
                   112     4      -0.175323      0.96803452
                   112     5       0.440118      1.00000000
                   113     1      -1.058261      0.00000000
                   113     2      -0.954497      0.00000000
                   113     3      -0.915523      0.00000000
                   113     4       0.040619      1.00000000
                   113     5       0.893745      1.00000000
                   114     1      -1.043480      0.00000000
                   114     2      -0.637445      0.00000000
                   114     3      -0.565863      0.00000000
                   114     4       0.066328      1.00000000
                   114     5       1.384550      1.00000000
                   115     1      -1.045381      0.00000000
                   115     2      -0.347243      0.00000000
                   115     3      -0.279767      0.00000000
                   115     4       0.032301      1.00000000
                   115     5       1.686850      1.00000000
                   116     1      -1.048199      0.00136722
                   116     2      -0.240680      0.00000000
                   116     3      -0.118892      0.00000000
                   116     4      -0.035738      0.99863278
                   116     5       1.782957      1.00000000
                   117     1      -1.045381      0.00000000
                   117     2      -0.347243      0.00000000
                   117     3      -0.279767      0.00000000
                   117     4       0.032301      1.00000000
                   117     5       1.686850      1.00000000
                   118     1      -1.043480      0.00000000
                   118     2      -0.637445      0.00000000
                   118     3      -0.565863      0.00000000
                   118     4       0.066328      1.00000000
                   118     5       1.384550      1.00000000
                   119     1      -1.058261      0.00000000
                   119     2      -0.954497      0.00000000
                   119     3      -0.915523      0.00000000
                   119     4       0.040619      1.00000000
                   119     5       0.893745      1.00000000
                   120     1      -1.260105      0.00194559
                   120     2      -1.066769      0.00757890
                   120     3      -1.027836      0.02244098
                   120     4      -0.175323      0.96803452
                   120     5       0.440118      1.00000000
                   121     1      -1.421735      0.00000000
                   121     2      -0.778287      0.19722797
                   121     3      -0.667972      0.00000000
                   121     4      -0.516244      0.80277203
                   121     5       0.736610      1.00000000
                   122     1      -1.266639      0.00132143
                   122     2      -0.770883      0.00107526
                   122     3      -0.730628      0.05193239
                   122     4      -0.213859      0.94567093
                   122     5       0.880834      1.00000000
                   123     1      -0.921767      0.00000000
                   123     2      -0.819253      0.00000000
                   123     3      -0.729462      0.00000000
                   123     4       0.059467      1.00000000
                   123     5       1.354811      1.00000000
                   124     1      -0.772917      0.00000000
                   124     2      -0.666259      0.00000000
                   124     3      -0.568621      0.00000000
                   124     4       0.131170      1.00000000
                   124     5       1.917337      1.00000000
                   125     1      -0.774396      0.00000000
                   125     2      -0.400561      0.00000000
                   125     3      -0.302473      0.00000000
                   125     4       0.116278      1.00000000
                   125     5       2.298748      1.00000000
                   126     1      -0.776588      0.00000000
                   126     2      -0.286756      0.00000000
                   126     3      -0.178631      0.00000000
                   126     4       0.084405      1.00000000
                   126     5       2.425671      1.00000000
                   127     1      -0.774396      0.00000000
                   127     2      -0.400561      0.00000000
                   127     3      -0.302473      0.00000000
                   127     4       0.116278      1.00000000
                   127     5       2.298748      1.00000000
                   128     1      -0.772917      0.00000000
                   128     2      -0.666259      0.00000000
                   128     3      -0.568621      0.00000000
                   128     4       0.131170      1.00000000
                   128     5       1.917337      1.00000000
                   129     1      -0.921767      0.00000000
                   129     2      -0.819253      0.00000000
                   129     3      -0.729462      0.00000000
                   129     4       0.059467      1.00000000
                   129     5       1.354811      1.00000000
                   130     1      -1.266639      0.00132143
                   130     2      -0.770883      0.00107526
                   130     3      -0.730628      0.05193239
                   130     4      -0.213859      0.94567093
                   130     5       0.880834      1.00000000
                   131     1      -1.451719      0.00000000
                   131     2      -0.605725      0.73206598
                   131     3      -0.528760      0.00000000
                   131     4      -0.513144      0.26793402
                   131     5       0.946089      1.00000000
                   132     1      -1.279308      0.00116908
                   132     2      -0.601682      0.00000302
                   132     3      -0.521567      0.03488016
                   132     4      -0.269669      0.96394775
                   132     5       1.102250      1.00000000
                   133     1      -0.921893      0.00000000
                   133     2      -0.666211      0.00000000
                   133     3      -0.542619      0.00000000
                   133     4       0.037458      1.00000000
                   133     5       1.600522      1.00000000
                   134     1      -0.645487      0.00000000
                   134     2      -0.596927      0.00000000
                   134     3      -0.570408      0.00000000
                   134     4       0.131814      1.00000000
                   134     5       2.223379      1.00000000
                   135     1      -0.612237      0.00000000
                   135     2      -0.425157      0.00000000
                   135     3      -0.332328      0.00000000
                   135     4       0.123839      1.00000000
                   135     5       2.687045      1.00000000
                   136     1      -0.617647      0.00000000
                   136     2      -0.302283      0.00000000
                   136     3      -0.225566      0.00000000
                   136     4       0.097441      1.00000000
                   136     5       2.856189      1.00000000
                   137     1      -0.612237      0.00000000
                   137     2      -0.425157      0.00000000
                   137     3      -0.332328      0.00000000
                   137     4       0.123839      1.00000000
                   137     5       2.687045      1.00000000
                   138     1      -0.645487      0.00000000
                   138     2      -0.596927      0.00000000
                   138     3      -0.570408      0.00000000
                   138     4       0.131814      1.00000000
                   138     5       2.223379      1.00000000
                   139     1      -0.921893      0.00000000
                   139     2      -0.666211      0.00000000
                   139     3      -0.542619      0.00000000
                   139     4       0.037458      1.00000000
                   139     5       1.600522      1.00000000
                   140     1      -1.279308      0.00116908
                   140     2      -0.601682      0.00000302
                   140     3      -0.521567      0.03488016
                   140     4      -0.269669      0.96394775
                   140     5       1.102250      1.00000000
                   141     1      -1.451719      0.00000000
                   141     2      -0.605725      0.73206598
                   141     3      -0.528760      0.00000000
                   141     4      -0.513144      0.26793402
                   141     5       0.946089      1.00000000
                   142     1      -1.279308      0.00116908
                   142     2      -0.601682      0.00000302
                   142     3      -0.521567      0.03488016
                   142     4      -0.269669      0.96394775
                   142     5       1.102250      1.00000000
                   143     1      -0.921893      0.00000000
                   143     2      -0.666211      0.00000000
                   143     3      -0.542619      0.00000000
                   143     4       0.037458      1.00000000
                   143     5       1.600522      1.00000000
                   144     1      -0.645487      0.00000000
                   144     2      -0.596927      0.00000000
                   144     3      -0.570408      0.00000000
                   144     4       0.131814      1.00000000
                   144     5       2.223379      1.00000000
                   145     1      -0.612237      0.00000000
                   145     2      -0.425157      0.00000000
                   145     3      -0.332328      0.00000000
                   145     4       0.123839      1.00000000
                   145     5       2.687045      1.00000000
                   146     1      -0.617647      0.00000000
                   146     2      -0.302283      0.00000000
                   146     3      -0.225566      0.00000000
                   146     4       0.097441      1.00000000
                   146     5       2.856189      1.00000000
                   147     1      -0.612237      0.00000000
                   147     2      -0.425157      0.00000000
                   147     3      -0.332328      0.00000000
                   147     4       0.123839      1.00000000
                   147     5       2.687045      1.00000000
                   148     1      -0.645487      0.00000000
                   148     2      -0.596927      0.00000000
                   148     3      -0.570408      0.00000000
                   148     4       0.131814      1.00000000
                   148     5       2.223379      1.00000000
                   149     1      -0.921893      0.00000000
                   149     2      -0.666211      0.00000000
                   149     3      -0.542619      0.00000000
                   149     4       0.037458      1.00000000
                   149     5       1.600522      1.00000000
                   150     1      -1.279308      0.00116908
                   150     2      -0.601682      0.00000302
                   150     3      -0.521567      0.03488016
                   150     4      -0.269669      0.96394775
                   150     5       1.102250      1.00000000
                   151     1      -1.421735      0.00000000
                   151     2      -0.778287      0.19722797
                   151     3      -0.667972      0.00000000
                   151     4      -0.516244      0.80277203
                   151     5       0.736610      1.00000000
                   152     1      -1.266639      0.00132143
                   152     2      -0.770883      0.00107526
                   152     3      -0.730628      0.05193239
                   152     4      -0.213859      0.94567093
                   152     5       0.880834      1.00000000
                   153     1      -0.921767      0.00000000
                   153     2      -0.819253      0.00000000
                   153     3      -0.729462      0.00000000
                   153     4       0.059467      1.00000000
                   153     5       1.354811      1.00000000
                   154     1      -0.772917      0.00000000
                   154     2      -0.666259      0.00000000
                   154     3      -0.568621      0.00000000
                   154     4       0.131170      1.00000000
                   154     5       1.917337      1.00000000
                   155     1      -0.774396      0.00000000
                   155     2      -0.400561      0.00000000
                   155     3      -0.302473      0.00000000
                   155     4       0.116278      1.00000000
                   155     5       2.298748      1.00000000
                   156     1      -0.776588      0.00000000
                   156     2      -0.286756      0.00000000
                   156     3      -0.178631      0.00000000
                   156     4       0.084405      1.00000000
                   156     5       2.425671      1.00000000
                   157     1      -0.774396      0.00000000
                   157     2      -0.400561      0.00000000
                   157     3      -0.302473      0.00000000
                   157     4       0.116278      1.00000000
                   157     5       2.298748      1.00000000
                   158     1      -0.772917      0.00000000
                   158     2      -0.666259      0.00000000
                   158     3      -0.568621      0.00000000
                   158     4       0.131170      1.00000000
                   158     5       1.917337      1.00000000
                   159     1      -0.921767      0.00000000
                   159     2      -0.819253      0.00000000
                   159     3      -0.729462      0.00000000
                   159     4       0.059467      1.00000000
                   159     5       1.354811      1.00000000
                   160     1      -1.266639      0.00132143
                   160     2      -0.770883      0.00107526
                   160     3      -0.730628      0.05193239
                   160     4      -0.213859      0.94567093
                   160     5       0.880834      1.00000000
                   161     1      -1.384377      0.00000000
                   161     2      -1.079206      0.06352069
                   161     3      -0.904377      0.00000000
                   161     4      -0.528611      0.93647931
                   161     5       0.328158      1.00000000
                   162     1      -1.260105      0.00194559
                   162     2      -1.066769      0.00757890
                   162     3      -1.027836      0.02244098
                   162     4      -0.175323      0.96803452
                   162     5       0.440118      1.00000000
                   163     1      -1.058261      0.00000000
                   163     2      -0.954497      0.00000000
                   163     3      -0.915523      0.00000000
                   163     4       0.040619      1.00000000
                   163     5       0.893745      1.00000000
                   164     1      -1.043480      0.00000000
                   164     2      -0.637445      0.00000000
                   164     3      -0.565863      0.00000000
                   164     4       0.066328      1.00000000
                   164     5       1.384550      1.00000000
                   165     1      -1.045381      0.00000000
                   165     2      -0.347243      0.00000000
                   165     3      -0.279767      0.00000000
                   165     4       0.032301      1.00000000
                   165     5       1.686850      1.00000000
                   166     1      -1.048199      0.00136722
                   166     2      -0.240680      0.00000000
                   166     3      -0.118892      0.00000000
                   166     4      -0.035738      0.99863278
                   166     5       1.782957      1.00000000
                   167     1      -1.045381      0.00000000
                   167     2      -0.347243      0.00000000
                   167     3      -0.279767      0.00000000
                   167     4       0.032301      1.00000000
                   167     5       1.686850      1.00000000
                   168     1      -1.043480      0.00000000
                   168     2      -0.637445      0.00000000
                   168     3      -0.565863      0.00000000
                   168     4       0.066328      1.00000000
                   168     5       1.384550      1.00000000
                   169     1      -1.058261      0.00000000
                   169     2      -0.954497      0.00000000
                   169     3      -0.915523      0.00000000
                   169     4       0.040619      1.00000000
                   169     5       0.893745      1.00000000
                   170     1      -1.260105      0.00194559
                   170     2      -1.066769      0.00757890
                   170     3      -1.027836      0.02244098
                   170     4      -0.175323      0.96803452
                   170     5       0.440118      1.00000000
                   171     1      -1.488475      0.00000000
                   171     2      -1.364277      0.03870753
                   171     3      -1.068068      0.00000000
                   171     4      -0.594154      0.96129247
                   171     5      -0.189362      1.00000000
                   172     1      -1.347248      0.01260615
                   172     2      -1.305964      0.02939596
                   172     3      -1.227930      0.00115382
                   172     4      -0.189432      0.97060404
                   172     5      -0.135229      0.98624003
                   173     1      -1.327453      0.00000000
                   173     2      -0.964119      0.07452129
                   173     3      -0.913712      0.00000000
[...]
                   749     3      -0.915523      0.00000000
                   749     4       0.040619      1.00000000
                   749     5       0.893745      1.00000000
                   750     1      -1.260105      0.00194559
                   750     2      -1.066769      0.00757890
                   750     3      -1.027836      0.02244098
                   750     4      -0.175323      0.96803452
                   750     5       0.440118      1.00000000
                   751     1      -1.421735      0.00000000
                   751     2      -0.778287      0.19722797
                   751     3      -0.667972      0.00000000
                   751     4      -0.516244      0.80277203
                   751     5       0.736610      1.00000000
                   752     1      -1.266639      0.00132143
                   752     2      -0.770883      0.00107526
                   752     3      -0.730628      0.05193239
                   752     4      -0.213859      0.94567093
                   752     5       0.880834      1.00000000
                   753     1      -0.921767      0.00000000
                   753     2      -0.819253      0.00000000
                   753     3      -0.729462      0.00000000
                   753     4       0.059467      1.00000000
                   753     5       1.354811      1.00000000
                   754     1      -0.772917      0.00000000
                   754     2      -0.666259      0.00000000
                   754     3      -0.568621      0.00000000
                   754     4       0.131170      1.00000000
                   754     5       1.917337      1.00000000
                   755     1      -0.774396      0.00000000
                   755     2      -0.400561      0.00000000
                   755     3      -0.302473      0.00000000
                   755     4       0.116278      1.00000000
                   755     5       2.298748      1.00000000
                   756     1      -0.776588      0.00000000
                   756     2      -0.286756      0.00000000
                   756     3      -0.178631      0.00000000
                   756     4       0.084405      1.00000000
                   756     5       2.425671      1.00000000
                   757     1      -0.774396      0.00000000
                   757     2      -0.400561      0.00000000
                   757     3      -0.302473      0.00000000
                   757     4       0.116278      1.00000000
                   757     5       2.298748      1.00000000
                   758     1      -0.772917      0.00000000
                   758     2      -0.666259      0.00000000
                   758     3      -0.568621      0.00000000
                   758     4       0.131170      1.00000000
                   758     5       1.917337      1.00000000
                   759     1      -0.921767      0.00000000
                   759     2      -0.819253      0.00000000
                   759     3      -0.729462      0.00000000
                   759     4       0.059467      1.00000000
                   759     5       1.354811      1.00000000
                   760     1      -1.266639      0.00132143
                   760     2      -0.770883      0.00107526
                   760     3      -0.730628      0.05193239
                   760     4      -0.213859      0.94567093
                   760     5       0.880834      1.00000000
                   761     1      -1.451719      0.00000000
                   761     2      -0.605725      0.73206598
                   761     3      -0.528760      0.00000000
                   761     4      -0.513144      0.26793402
                   761     5       0.946089      1.00000000
                   762     1      -1.279308      0.00116908
                   762     2      -0.601682      0.00000302
                   762     3      -0.521567      0.03488016
                   762     4      -0.269669      0.96394775
                   762     5       1.102250      1.00000000
                   763     1      -0.921893      0.00000000
                   763     2      -0.666211      0.00000000
                   763     3      -0.542619      0.00000000
                   763     4       0.037458      1.00000000
                   763     5       1.600522      1.00000000
                   764     1      -0.645487      0.00000000
                   764     2      -0.596927      0.00000000
                   764     3      -0.570408      0.00000000
                   764     4       0.131814      1.00000000
                   764     5       2.223379      1.00000000
                   765     1      -0.612237      0.00000000
                   765     2      -0.425157      0.00000000
                   765     3      -0.332328      0.00000000
                   765     4       0.123839      1.00000000
                   765     5       2.687045      1.00000000
                   766     1      -0.617647      0.00000000
                   766     2      -0.302283      0.00000000
                   766     3      -0.225566      0.00000000
                   766     4       0.097441      1.00000000
                   766     5       2.856189      1.00000000
                   767     1      -0.612237      0.00000000
                   767     2      -0.425157      0.00000000
                   767     3      -0.332328      0.00000000
                   767     4       0.123839      1.00000000
                   767     5       2.687045      1.00000000
                   768     1      -0.645487      0.00000000
                   768     2      -0.596927      0.00000000
                   768     3      -0.570408      0.00000000
                   768     4       0.131814      1.00000000
                   768     5       2.223379      1.00000000
                   769     1      -0.921893      0.00000000
                   769     2      -0.666211      0.00000000
                   769     3      -0.542619      0.00000000
                   769     4       0.037458      1.00000000
                   769     5       1.600522      1.00000000
                   770     1      -1.279308      0.00116908
                   770     2      -0.601682      0.00000302
                   770     3      -0.521567      0.03488016
                   770     4      -0.269669      0.96394775
                   770     5       1.102250      1.00000000
                   771     1      -1.451719      0.00000000
                   771     2      -0.605725      0.73206598
                   771     3      -0.528760      0.00000000
                   771     4      -0.513144      0.26793402
                   771     5       0.946089      1.00000000
                   772     1      -1.279308      0.00116908
                   772     2      -0.601682      0.00000302
                   772     3      -0.521567      0.03488016
                   772     4      -0.269669      0.96394775
                   772     5       1.102250      1.00000000
                   773     1      -0.921893      0.00000000
                   773     2      -0.666211      0.00000000
                   773     3      -0.542619      0.00000000
                   773     4       0.037458      1.00000000
                   773     5       1.600522      1.00000000
                   774     1      -0.645487      0.00000000
                   774     2      -0.596927      0.00000000
                   774     3      -0.570408      0.00000000
                   774     4       0.131814      1.00000000
                   774     5       2.223379      1.00000000
                   775     1      -0.612237      0.00000000
                   775     2      -0.425157      0.00000000
                   775     3      -0.332328      0.00000000
                   775     4       0.123839      1.00000000
                   775     5       2.687045      1.00000000
                   776     1      -0.617647      0.00000000
                   776     2      -0.302283      0.00000000
                   776     3      -0.225566      0.00000000
                   776     4       0.097441      1.00000000
                   776     5       2.856189      1.00000000
                   777     1      -0.612237      0.00000000
                   777     2      -0.425157      0.00000000
                   777     3      -0.332328      0.00000000
                   777     4       0.123839      1.00000000
                   777     5       2.687045      1.00000000
                   778     1      -0.645487      0.00000000
                   778     2      -0.596927      0.00000000
                   778     3      -0.570408      0.00000000
                   778     4       0.131814      1.00000000
                   778     5       2.223379      1.00000000
                   779     1      -0.921893      0.00000000
                   779     2      -0.666211      0.00000000
                   779     3      -0.542619      0.00000000
                   779     4       0.037458      1.00000000
                   779     5       1.600522      1.00000000
                   780     1      -1.279308      0.00116908
                   780     2      -0.601682      0.00000302
                   780     3      -0.521567      0.03488016
                   780     4      -0.269669      0.96394775
                   780     5       1.102250      1.00000000
                   781     1      -1.421735      0.00000000
                   781     2      -0.778287      0.19722797
                   781     3      -0.667972      0.00000000
                   781     4      -0.516244      0.80277203
                   781     5       0.736610      1.00000000
                   782     1      -1.266639      0.00132143
                   782     2      -0.770883      0.00107526
                   782     3      -0.730628      0.05193239
                   782     4      -0.213859      0.94567093
                   782     5       0.880834      1.00000000
                   783     1      -0.921767      0.00000000
                   783     2      -0.819253      0.00000000
                   783     3      -0.729462      0.00000000
                   783     4       0.059467      1.00000000
                   783     5       1.354811      1.00000000
                   784     1      -0.772917      0.00000000
                   784     2      -0.666259      0.00000000
                   784     3      -0.568621      0.00000000
                   784     4       0.131170      1.00000000
                   784     5       1.917337      1.00000000
                   785     1      -0.774396      0.00000000
                   785     2      -0.400561      0.00000000
                   785     3      -0.302473      0.00000000
                   785     4       0.116278      1.00000000
                   785     5       2.298748      1.00000000
                   786     1      -0.776588      0.00000000
                   786     2      -0.286756      0.00000000
                   786     3      -0.178631      0.00000000
                   786     4       0.084405      1.00000000
                   786     5       2.425671      1.00000000
                   787     1      -0.774396      0.00000000
                   787     2      -0.400561      0.00000000
                   787     3      -0.302473      0.00000000
                   787     4       0.116278      1.00000000
                   787     5       2.298748      1.00000000
                   788     1      -0.772917      0.00000000
                   788     2      -0.666259      0.00000000
                   788     3      -0.568621      0.00000000
                   788     4       0.131170      1.00000000
                   788     5       1.917337      1.00000000
                   789     1      -0.921767      0.00000000
                   789     2      -0.819253      0.00000000
                   789     3      -0.729462      0.00000000
                   789     4       0.059467      1.00000000
                   789     5       1.354811      1.00000000
                   790     1      -1.266639      0.00132143
                   790     2      -0.770883      0.00107526
                   790     3      -0.730628      0.05193239
                   790     4      -0.213859      0.94567093
                   790     5       0.880834      1.00000000
                   791     1      -1.384377      0.00000000
                   791     2      -1.079206      0.06352069
                   791     3      -0.904377      0.00000000
                   791     4      -0.528611      0.93647931
                   791     5       0.328158      1.00000000
                   792     1      -1.260105      0.00194559
                   792     2      -1.066769      0.00757890
                   792     3      -1.027836      0.02244098
                   792     4      -0.175323      0.96803452
                   792     5       0.440118      1.00000000
                   793     1      -1.058261      0.00000000
                   793     2      -0.954497      0.00000000
                   793     3      -0.915523      0.00000000
                   793     4       0.040619      1.00000000
                   793     5       0.893745      1.00000000
                   794     1      -1.043480      0.00000000
                   794     2      -0.637445      0.00000000
                   794     3      -0.565863      0.00000000
                   794     4       0.066328      1.00000000
                   794     5       1.384550      1.00000000
                   795     1      -1.045381      0.00000000
                   795     2      -0.347243      0.00000000
                   795     3      -0.279767      0.00000000
                   795     4       0.032301      1.00000000
                   795     5       1.686850      1.00000000
                   796     1      -1.048199      0.00136722
                   796     2      -0.240680      0.00000000
                   796     3      -0.118892      0.00000000
                   796     4      -0.035738      0.99863278
                   796     5       1.782957      1.00000000
                   797     1      -1.045381      0.00000000
                   797     2      -0.347243      0.00000000
                   797     3      -0.279767      0.00000000
                   797     4       0.032301      1.00000000
                   797     5       1.686850      1.00000000
                   798     1      -1.043480      0.00000000
                   798     2      -0.637445      0.00000000
                   798     3      -0.565863      0.00000000
                   798     4       0.066328      1.00000000
                   798     5       1.384550      1.00000000
                   799     1      -1.058261      0.00000000
                   799     2      -0.954497      0.00000000
                   799     3      -0.915523      0.00000000
                   799     4       0.040619      1.00000000
                   799     5       0.893745      1.00000000
                   800     1      -1.260105      0.00194559
                   800     2      -1.066769      0.00757890
                   800     3      -1.027836      0.02244098
                   800     4      -0.175323      0.96803452
                   800     5       0.440118      1.00000000
                   801     1      -1.488475      0.00000000
                   801     2      -1.364277      0.03870753
                   801     3      -1.068068      0.00000000
                   801     4      -0.594154      0.96129247
                   801     5      -0.189362      1.00000000
                   802     1      -1.347248      0.01260615
                   802     2      -1.305964      0.02939596
                   802     3      -1.227930      0.00115382
                   802     4      -0.189432      0.97060404
                   802     5      -0.135229      0.98624003
                   803     1      -1.327453      0.00000000
                   803     2      -0.964119      0.07452129
                   803     3      -0.913712      0.00000000
                   803     4      -0.185414      0.92547871
                   803     5       0.460778      1.00000000
                   804     1      -1.332022      0.00000000
                   804     2      -0.642521      0.22732960
                   804     3      -0.537601      0.00000000
                   804     4      -0.164312      0.77267040
                   804     5       0.915455      1.00000000
                   805     1      -1.343788      0.00000000
                   805     2      -0.453065      0.63802210
                   805     3      -0.270000      0.00000000
                   805     4      -0.119494      0.36197790
                   805     5       1.181148      1.00000000
                   806     1      -1.348616      0.00000000
                   806     2      -0.400624      1.00000000
                   806     3      -0.172481      0.00000000
                   806     4      -0.087156      0.00000000
                   806     5       1.267117      1.00000000
                   807     1      -1.343788      0.00000000
                   807     2      -0.453065      0.63802210
                   807     3      -0.270000      0.00000000
                   807     4      -0.119494      0.36197790
                   807     5       1.181148      1.00000000
                   808     1      -1.332022      0.00000000
                   808     2      -0.642521      0.22732960
                   808     3      -0.537601      0.00000000
                   808     4      -0.164312      0.77267040
                   808     5       0.915455      1.00000000
                   809     1      -1.327453      0.00000000
                   809     2      -0.964119      0.07452129
                   809     3      -0.913712      0.00000000
                   809     4      -0.185414      0.92547871
                   809     5       0.460778      1.00000000
                   810     1      -1.347248      0.01260615
                   810     2      -1.305964      0.02939596
                   810     3      -1.227930      0.00115382
                   810     4      -0.189432      0.97060404
                   810     5      -0.135229      0.98624003
 ------------------------------------------------------------------------------

 Time for wannierise            0.300 (sec)

 Writing checkpoint file w2w.chk... done

 *---------------------------------------------------------------------------*
 |                               PLOTTING                                    |
 *---------------------------------------------------------------------------*
 
 
 Calculating interpolated band-structure
 
 Time to calculate interpolated band structure       0.060 (sec)
 
 Time for plotting              0.496 (sec)
 Total Execution Time           1.456 (sec)

 *===========================================================================*
 |                             TIMING INFORMATION                            |
 *===========================================================================*
 |    Tag                                                Ncalls      Time (s)|
 |---------------------------------------------------------------------------|
 |kmesh: get                                        :         1         0.140|
 |overlap: read                                     :         1         0.082|
 |dis: main                                         :         1         0.391|
 |wann: main                                        :         1         0.300|
 |plot: main                                        :         1         0.496|
 *---------------------------------------------------------------------------*
 
 All done: wannier90 exiting
