 
             +---------------------------------------------------+
             |                                                   |
             |                   WANNIER90                       |
             |                                                   |
             +---------------------------------------------------+
             |                                                   |
             |        Welcome to the Maximally-Localized         |
             |        Generalized Wannier Functions code         |
             |            http://www.wannier.org                 |
             |                                                   |
             |  Wannier90 v2.x Authors:                          |
             |    Arash A. Mostofi  (Imperial College London)    |
             |    Giovanni Pizzi    (EPFL)                       |
             |    Ivo Souza         (Universidad del Pais Vasco) |
             |    Jonathan R. Yates (University of Oxford)       |
             |                                                   |
             |  Wannier90 Contributors:                          |
             |    Young-Su Lee       (KIST, S. Korea)            |
             |    Matthew Shelley    (Imperial College London)   |
             |    Nicolas Poilvert   (Penn State University)     |
             |    Raffaello Bianco   (Paris 6 and CNRS)          |
             |    Gabriele Sclauzero (ETH Zurich)                |
             |    David Strubbe (MIT, USA)                       |
             |    Rei Sakuma (Lund University, Sweden)           |
             |    Yusuke Nomura (U. Tokyo, Japan)                |
             |    Takashi Koretsune (Riken, Japan)               |
             |    Yoshiro Nohara (ASMS Co. Ltd., Japan)          |
             |    Ryotaro Arita (Riken, Japan)                   |
             |    Lorenzo Paulatto (UPMC Paris)                  |
             |    Florian Thole (ETH Zurich)                     |
             |    Pablo Garcia Fernandez (Unican, Spain)         |
             |    Dominik Gresch (ETH Zurich)                    |
             |    Samuel Ponce (University of Oxford)            |
             |    Marco Gibertini (EPFL)                         |
             |    Christian Stieger (ETHZ, CH)                   |
             |    Stepan Tsirkin (Universidad del Pais Vasco)    |
             |                                                   |
             |  Wannier77 Authors:                               |
             |    Nicola Marzari    (EPFL)                       |
             |    Ivo Souza         (Universidad del Pais Vasco) |
             |    David Vanderbilt  (Rutgers University)         |
             |                                                   |
             |  Please cite                                      |
             |                                                   |
             |  [ref] "An updated version of Wannier90:          |
             |        A Tool for Obtaining Maximally Localised   |
             |        Wannier Functions", A. A. Mostofi,         |
             |        J. R. Yates, G. Pizzi, Y. S. Lee,          |
             |        I. Souza, D. Vanderbilt and N. Marzari,    |
             |        Comput. Phys. Commun. 185, 2309 (2014)     |
             |        http://dx.doi.org/10.1016/j.cpc.2014.05.003|
             |                                                   |
             |  in any publications arising from the use of      |
             |  this code. For the method please cite            |
             |                                                   |
             |  [ref] "Maximally Localized Generalised Wannier   |
             |         Functions for Composite Energy Bands"     |
             |         N. Marzari and D. Vanderbilt              |
             |         Phys. Rev. B 56 12847 (1997)              |
             |                                                   |
             |  [ref] "Maximally Localized Wannier Functions     |
             |         for Entangled Energy Bands"               |
             |         I. Souza, N. Marzari and D. Vanderbilt    |
             |         Phys. Rev. B 65 035109 (2001)             |
             |                                                   |
             |                                                   |
             | Copyright (c) 1996-2017                           |
             |        Arash A. Mostofi, Jonathan R. Yates,       |
             |        Young-Su Lee, Giovanni Pizzi, Ivo Souza,   |
             |        David Vanderbilt and Nicola Marzari        |
             |                                                   |
             |        Release: 2.1.0   13th January 2017         |
             |                                                   |
             | This program is free software; you can            |
             | redistribute it and/or modify it under the terms  |
             | of the GNU General Public License as published by |
             | the Free Software Foundation; either version 2 of |
             | the License, or (at your option) any later version|
             |                                                   |
             | This program is distributed in the hope that it   |
             | will be useful, but WITHOUT ANY WARRANTY; without |
             | even the implied warranty of MERCHANTABILITY or   |
             | FITNESS FOR A PARTICULAR PURPOSE. See the GNU     |
             | General Public License for more details.          |
             |                                                   |
             | You should have received a copy of the GNU General|
             | Public License along with this program; if not,   |
             | write to the Free Software Foundation, Inc.,      |
             | 675 Mass Ave, Cambridge, MA 02139, USA.           |
             |                                                   |
             +---------------------------------------------------+
             |    Execution started on  3Aug2019 at 14:56:37     |
             +---------------------------------------------------+
 
 ******************************************************************************
 * -> Using CODATA 2006 constant values                                       *
 *    (http://physics.nist.gov/cuu/Constants/index.html)                      *
 * -> Using Bohr value from CODATA                                            *
 ******************************************************************************
 
 
                                    ------
                                    SYSTEM
                                    ------
 
                              Lattice Vectors (Ang)
                    a_1     3.863000   0.000000   0.000000
                    a_2     0.000000   3.863000   0.000000
                    a_3     0.000000   0.000000   3.866200
 
                   Unit Cell Volume:      57.69441  (Ang^3)
 
                        Reciprocal-Space Vectors (Ang^-1)
                    b_1     1.626504   0.000000   0.000000
                    b_2     0.000000   1.626504   0.000000
                    b_3     0.000000   0.000000   1.625158
  
 *----------------------------------------------------------------------------*
 |   Site       Fractional Coordinate          Cartesian Coordinate (Ang)     |
 +----------------------------------------------------------------------------+
 | 1    1   0.00000   0.00000   0.00000   |    0.00000   0.00000   0.00000    |
 | 2    1   0.50000   0.50000   0.50000   |    1.93150   1.93150   1.93310    |
 | 3    1   0.50000   0.50000   0.00000   |    1.93150   1.93150   0.00000    |
 | 4    1   0.50000   0.00000   0.50000   |    1.93150   0.00000   1.93310    |
 | 5    1   0.00000   0.50000   0.50000   |    0.00000   1.93150   1.93310    |
 *----------------------------------------------------------------------------*
  
                                ------------
                                K-POINT GRID
                                ------------
  
             Grid size = 10 x 10 x  9      Total points =  900
  
  
 *---------------------------------- MAIN ------------------------------------*
 |  Number of Wannier Functions               :                 2             |
 |  Number of input Bloch states              :                 5             |
 |  Output verbosity (1=low, 5=high)          :                 1             |
 |  Timing Level (1=low, 5=high)              :                 1             |
 |  Optimisation (0=memory, 3=speed)          :                 3             |
 |  Length Unit                               :               Ang             |
 |  Post-processing setup (write *.nnkp)      :                 F             |
 |  Using Gamma-only branch of algorithms     :                 F             |
 *----------------------------------------------------------------------------*
 *------------------------------- WANNIERISE ---------------------------------*
 |  Total number of iterations                :             10000             |
 |  Number of CG steps before reset           :                 5             |
 |  Trial step length for line search         :             2.000             |
 |  Convergence tolerence                     :         0.100E-09             |
 |  Convergence window                        :                 3             |
 |  Iterations between writing output         :               100             |
 |  Iterations between backing up to disk     :               100             |
 |  Write r^2_nm to file                      :                 F             |
 |  Write xyz WF centres to file              :                 T             |
 |  Write on-site energies <0n|H|0n> to file  :                 F             |
 |  Use guiding centre to control phases      :                 T             |
 |  Use phases for initial projections        :                 F             |
 |  Iterations before starting guiding centres:                 0             |
 |  Iterations between using guiding centres  :                 1             |
 *----------------------------------------------------------------------------*
 *------------------------------- DISENTANGLE --------------------------------*
 |  Using band disentanglement                :                 T             |
 |  Total number of iterations                :             10000             |
 |  Mixing ratio                              :             0.500             |
 |  Convergence tolerence                     :         1.000E-10             |
 |  Convergence window                        :                 3             |
 *----------------------------------------------------------------------------*
 *-------------------------------- PLOTTING ----------------------------------*
 |  Plotting interpolated bandstructure       :                 T             |
 |   Number of K-path sections                :                 7             |
 |   Divisions along first K-path section     :                50             |
 |   Output format                            :           gnuplot             |
 |   Output mode                              :               s-k             |
 *----------------------------------------------------------------------------*
 |   K-space path sections:                                                   |
 |    From:  G    0.000  0.000  0.000     To:  X    0.500  0.000  0.000       |
 |    From:  X    0.500  0.000  0.000     To:  M    0.500  0.500  0.000       |
 |    From:  M    0.500  0.500  0.000     To:  G    0.000  0.000  0.000       |
 |    From:  G    0.000  0.000  0.000     To:  Z    0.000  0.000 -0.500       |
 |    From:  Z    0.000  0.000 -0.500     To:  R    0.500  0.000 -0.500       |
 |    From:  R    0.500  0.000 -0.500     To:  A    0.500  0.500 -0.500       |
 |    From:  A    0.500  0.500 -0.500     To:  Z    0.000  0.000 -0.500       |
 *----------------------------------------------------------------------------*
 |  Plotting Hamiltonian in WF basis          :                 T             |
 *----------------------------------------------------------------------------*
 Time to read parameters        0.051 (sec)

 *---------------------------------- K-MESH ----------------------------------*
 +----------------------------------------------------------------------------+
 |                    Distance to Nearest-Neighbour Shells                    |
 |                    ------------------------------------                    |
 |          Shell             Distance (Ang^-1)          Multiplicity         |
 |          -----             -----------------          ------------         |
 |             1                   0.162650                      4            |
 |             2                   0.180573                      2            |
 |             3                   0.230022                      4            |
 |             4                   0.243026                      8            |
 |             5                   0.292433                      8            |
 |             6                   0.325301                      4            |
 |             7                   0.361146                      2            |
 |             8                   0.363697                      8            |
 |             9                   0.372058                      8            |
 |            10                   0.396083                      8            |
 |            11                   0.406057                     16            |
 |            12                   0.428179                      8            |
 +----------------------------------------------------------------------------+
 | The b-vectors are chosen automatically                                     |
 | The following shells are used:   1,  2                                     |
 +----------------------------------------------------------------------------+
 |                        Shell   # Nearest-Neighbours                        |
 |                        -----   --------------------                        |
 |                          1               4                                 |
 |                          2               2                                 |
 +----------------------------------------------------------------------------+
 | Completeness relation is fully satisfied [Eq. (B1), PRB 56, 12847 (1997)]  |
 +----------------------------------------------------------------------------+
 |                  b_k Vectors (Ang^-1) and Weights (Ang^2)                  |
 |                  ----------------------------------------                  |
 |            No.         b_k(x)      b_k(y)      b_k(z)        w_b           |
 |            ---        --------------------------------     --------        |
 |             1         0.000000    0.162650    0.000000    18.899907        |
 |             2         0.162650    0.000000    0.000000    18.899907        |
 |             3         0.000000   -0.162650    0.000000    18.899907        |
 |             4        -0.162650    0.000000    0.000000    18.899907        |
 |             5         0.000000    0.000000    0.180573    15.334298        |
 |             6         0.000000    0.000000   -0.180573    15.334298        |
 +----------------------------------------------------------------------------+
 |                           b_k Directions (Ang^-1)                          |
 |                           -----------------------                          |
 |            No.           x           y           z                         |
 |            ---        --------------------------------                     |
 |             1         0.000000    0.162650    0.000000                     |
 |             2         0.162650    0.000000    0.000000                     |
 |             3         0.000000    0.000000    0.180573                     |
 +----------------------------------------------------------------------------+
  
 *============================================================================*
 |                              MEMORY ESTIMATE                               |
 |         Maximum RAM allocated during each phase of the calculation         |
 *============================================================================*
 |                        Disentanglement            3.46 Mb                  |
 |                            Wannierise:            1.73 Mb                  |
 |                          plot_wannier:            1.73 Mb                  |
 *----------------------------------------------------------------------------*
  
 Starting a new Wannier90 calculation ...

 Time to get kmesh              0.179 (sec)

 Reading overlaps from w2w.mmn    : LaNiO3

 Reading projections from w2w.amn : LaNiO3

 Time to read overlaps          0.091 (sec)

 *------------------------------- DISENTANGLE --------------------------------*
 +----------------------------------------------------------------------------+
 |                              Energy  Windows                               |
 |                              ---------------                               |
 |                   Outer:   -1.84836  to    2.85491  (eV)                   |
 |                   Inner:    0.00000  to    3.50000  (eV)                   |
 +----------------------------------------------------------------------------+
   Number of target bands to extract:    2

                   Unitarised projection of Wannier functions                  
                   ------------------------------------------                  
   A_mn = <psi_m|g_n> --> S = A.A^+ --> U = S^-1/2.A
   In dis_project... done
   Using an inner window (linner = T)
   In dis_proj_froz... done

                   Extraction of optimally-connected subspace                  
                   ------------------------------------------                  
 +---------------------------------------------------------------------+<-- DIS
 |  Iter     Omega_I(i-1)      Omega_I(i)      Delta (frac.)    Time   |<-- DIS
 +---------------------------------------------------------------------+<-- DIS
       1       7.84190457       7.45549697       5.183E-02      0.34    <-- DIS
       2       7.50174505       7.39079280       1.501E-02      0.34    <-- DIS
       3       7.42588819       7.35343297       9.853E-03      0.35    <-- DIS
       4       7.37524450       7.33024481       6.139E-03      0.36    <-- DIS
       5       7.34246417       7.31558384       3.674E-03      0.36    <-- DIS
       6       7.32159116       7.30622521       2.103E-03      0.37    <-- DIS
       7       7.30845698       7.30021414       1.129E-03      0.37    <-- DIS
       8       7.30028447       7.29633642       5.411E-04      0.38    <-- DIS
       9       7.29526385       7.29382700       1.970E-04      0.39    <-- DIS
      10       7.29222993       7.29219922       4.212E-06      0.39    <-- DIS
      11       7.29043828       7.29114140      -9.643E-05      0.40    <-- DIS
      12       7.28941609       7.29045300      -1.422E-04      0.41    <-- DIS
      13       7.28886462       7.29000451      -1.564E-04      0.41    <-- DIS
      14       7.28859623       7.28971205      -1.531E-04      0.42    <-- DIS
      15       7.28849387       7.28952119      -1.409E-04      0.43    <-- DIS
      16       7.28848524       7.28939657      -1.250E-04      0.43    <-- DIS
      17       7.28852623       7.28931515      -1.082E-04      0.44    <-- DIS
      18       7.28859044       7.28926193      -9.212E-05      0.45    <-- DIS
      19       7.28866249       7.28922714      -7.746E-05      0.45    <-- DIS
      20       7.28873381       7.28920438      -6.456E-05      0.46    <-- DIS
      21       7.28879994       7.28918949      -5.344E-05      0.47    <-- DIS
      22       7.28885891       7.28917974      -4.402E-05      0.47    <-- DIS
      23       7.28891016       7.28917336      -3.611E-05      0.48    <-- DIS
      24       7.28895391       7.28916919      -2.953E-05      0.48    <-- DIS
      25       7.28899080       7.28916645      -2.410E-05      0.49    <-- DIS
      26       7.28902160       7.28916466      -1.963E-05      0.50    <-- DIS
      27       7.28904714       7.28916349      -1.596E-05      0.50    <-- DIS
      28       7.28906821       7.28916272      -1.297E-05      0.51    <-- DIS
      29       7.28908551       7.28916222      -1.052E-05      0.52    <-- DIS
      30       7.28909967       7.28916189      -8.535E-06      0.52    <-- DIS
      31       7.28911124       7.28916167      -6.919E-06      0.53    <-- DIS
      32       7.28912067       7.28916153      -5.606E-06      0.54    <-- DIS
      33       7.28912834       7.28916144      -4.541E-06      0.54    <-- DIS
      34       7.28913457       7.28916138      -3.677E-06      0.55    <-- DIS
      35       7.28913963       7.28916134      -2.977E-06      0.56    <-- DIS
      36       7.28914374       7.28916131      -2.410E-06      0.56    <-- DIS
      37       7.28914707       7.28916129      -1.951E-06      0.57    <-- DIS
      38       7.28914977       7.28916128      -1.579E-06      0.57    <-- DIS
      39       7.28915196       7.28916127      -1.278E-06      0.58    <-- DIS
      40       7.28915373       7.28916127      -1.034E-06      0.59    <-- DIS
      41       7.28915516       7.28916127      -8.372E-07      0.59    <-- DIS
      42       7.28915633       7.28916126      -6.775E-07      0.60    <-- DIS
      43       7.28915727       7.28916126      -5.483E-07      0.61    <-- DIS
      44       7.28915803       7.28916126      -4.438E-07      0.61    <-- DIS
      45       7.28915864       7.28916126      -3.592E-07      0.62    <-- DIS
      46       7.28915914       7.28916126      -2.907E-07      0.63    <-- DIS
      47       7.28915955       7.28916126      -2.353E-07      0.63    <-- DIS
      48       7.28915987       7.28916126      -1.905E-07      0.64    <-- DIS
      49       7.28916014       7.28916126      -1.542E-07      0.65    <-- DIS
      50       7.28916035       7.28916126      -1.248E-07      0.65    <-- DIS
      51       7.28916052       7.28916126      -1.010E-07      0.66    <-- DIS
      52       7.28916066       7.28916126      -8.178E-08      0.66    <-- DIS
      53       7.28916078       7.28916126      -6.621E-08      0.67    <-- DIS
      54       7.28916087       7.28916126      -5.360E-08      0.68    <-- DIS
      55       7.28916094       7.28916126      -4.339E-08      0.68    <-- DIS
      56       7.28916100       7.28916126      -3.513E-08      0.69    <-- DIS
      57       7.28916105       7.28916126      -2.845E-08      0.70    <-- DIS
      58       7.28916109       7.28916126      -2.303E-08      0.70    <-- DIS
      59       7.28916112       7.28916126      -1.865E-08      0.71    <-- DIS
      60       7.28916115       7.28916126      -1.510E-08      0.72    <-- DIS
      61       7.28916117       7.28916126      -1.223E-08      0.72    <-- DIS
      62       7.28916119       7.28916126      -9.903E-09      0.73    <-- DIS
      63       7.28916120       7.28916126      -8.020E-09      0.74    <-- DIS
      64       7.28916121       7.28916126      -6.495E-09      0.74    <-- DIS
      65       7.28916122       7.28916126      -5.260E-09      0.75    <-- DIS
      66       7.28916123       7.28916126      -4.260E-09      0.75    <-- DIS
      67       7.28916124       7.28916126      -3.450E-09      0.76    <-- DIS
      68       7.28916124       7.28916126      -2.795E-09      0.77    <-- DIS
      69       7.28916124       7.28916126      -2.264E-09      0.77    <-- DIS
      70       7.28916125       7.28916126      -1.833E-09      0.78    <-- DIS
      71       7.28916125       7.28916126      -1.485E-09      0.79    <-- DIS
      72       7.28916125       7.28916126      -1.203E-09      0.79    <-- DIS
      73       7.28916125       7.28916126      -9.745E-10      0.80    <-- DIS
      74       7.28916125       7.28916126      -7.895E-10      0.81    <-- DIS
      75       7.28916126       7.28916126      -6.396E-10      0.81    <-- DIS
      76       7.28916126       7.28916126      -5.181E-10      0.82    <-- DIS
      77       7.28916126       7.28916126      -4.198E-10      0.83    <-- DIS
      78       7.28916126       7.28916126      -3.401E-10      0.83    <-- DIS
      79       7.28916126       7.28916126      -2.755E-10      0.84    <-- DIS
      80       7.28916126       7.28916126      -2.233E-10      0.84    <-- DIS
      81       7.28916126       7.28916126      -1.809E-10      0.85    <-- DIS
      82       7.28916126       7.28916126      -1.466E-10      0.86    <-- DIS
      83       7.28916126       7.28916126      -1.188E-10      0.86    <-- DIS
      84       7.28916126       7.28916126      -9.624E-11      0.87    <-- DIS
      85       7.28916126       7.28916126      -7.799E-11      0.88    <-- DIS
      86       7.28916126       7.28916126      -6.320E-11      0.88    <-- DIS

             <<<      Delta < 1.000E-10  over  3 iterations     >>>
             <<< Disentanglement convergence criteria satisfied >>>

        Final Omega_I     7.28916126 (Ang^2)

 +----------------------------------------------------------------------------+

 Time to disentangle bands      0.572 (sec)

 Writing checkpoint file w2w.chk... done

 
 *------------------------------- WANNIERISE ---------------------------------*
 +--------------------------------------------------------------------+<-- CONV
 | Iter  Delta Spread     RMS Gradient      Spread (Ang^2)      Time  |<-- CONV
 +--------------------------------------------------------------------+<-- CONV
 
 ------------------------------------------------------------------------------
 Initial State
  WF centre and spread    1  ( -1.931500, -1.931500, -1.933100 )     3.64366777
  WF centre and spread    2  ( -1.931500, -1.931500, -1.933100 )     3.70427678
  Sum of centres and spreads ( -3.863000, -3.863000, -3.866200 )     7.34794455
 
      0     0.735E+01     0.0000000000        7.3479445476       0.90  <-- CONV
        O_D=      0.0000000 O_OD=      0.0587833 O_TOT=      7.3479445 <-- SPRD
 ------------------------------------------------------------------------------
 Cycle:      1
  WF centre and spread    1  ( -1.931500, -1.931500, -1.933100 )     3.64275466
  WF centre and spread    2  ( -1.931500, -1.931500, -1.933100 )     3.70470289
  Sum of centres and spreads ( -3.863000, -3.863000, -3.866200 )     7.34745754
 
      1    -0.487E-03     0.0161843458        7.3474575447       0.91  <-- CONV
        O_D=      0.0000000 O_OD=      0.0582963 O_TOT=      7.3474575 <-- SPRD
 Delta: O_D=  0.2835838E-08 O_OD= -0.4870057E-03 O_TOT= -0.4870029E-03 <-- DLTA
 ------------------------------------------------------------------------------

             <<<     Delta < 1.000E-10  over  3 iterations     >>>
             <<< Wannierisation convergence criteria satisfied >>>

 Final State
  WF centre and spread    1  ( -1.931500, -1.931500, -1.933100 )     3.64011378
  WF centre and spread    2  ( -1.931500, -1.931500, -1.933100 )     3.70722883
  Sum of centres and spreads ( -3.863000, -3.863000, -3.866200 )     7.34734261
 
         Spreads (Ang^2)       Omega I      =     7.289161260
        ================       Omega D      =     0.000000000
                               Omega OD     =     0.058181348
    Final Spread (Ang^2)       Omega Total  =     7.347342608
 ------------------------------------------------------------------------------

 Wannier centres written to file w2w_centres.xyz

 ------------------------------------------------------------------------------
          Projection of Bands in Outer Window on all Wannier Functions
         --------------------------------------------------------------
                    Kpt  Band      Eigval      |Projection|^2
                 -----------------------------------------------
                     1     1      -1.100653      0.00000000
                     1     2      -1.100653      0.00000000
                     1     3      -1.099870      0.00000000
                     1     4      -1.011391      1.00000000
                     1     5      -1.010175      1.00000000
                     2     1      -1.717194      0.01442261
                     2     2      -1.044798      0.00000000
                     2     3      -1.044798      0.00000000
                     2     4      -1.008045      1.00000000
                     2     5      -0.403957      0.98557739
                     3     1      -1.673920      0.00000000
                     3     2      -1.005297      1.00000000
                     3     3      -0.810204      0.00000000
                     3     4      -0.810204      0.00000000
                     3     5       0.175285      1.00000000
                     4     1      -1.765281      0.00000000
                     4     2      -1.004306      1.00000000
                     4     3      -0.540193      0.00000000
                     4     4      -0.540193      0.00000000
                     4     5       0.600556      1.00000000
                     5     1      -1.837035      0.00000000
                     5     2      -1.003146      1.00000000
                     5     3      -0.383554      0.00000000
                     5     4      -0.383554      0.00000000
                     5     5       0.821572      1.00000000
                     6     1      -1.837035      0.00000000
                     6     2      -1.003146      1.00000000
                     6     3      -0.383554      0.00000000
                     6     4      -0.383554      0.00000000
                     6     5       0.821572      1.00000000
                     7     1      -1.765281      0.00000000
                     7     2      -1.004306      1.00000000
                     7     3      -0.540193      0.00000000
                     7     4      -0.540193      0.00000000
                     7     5       0.600556      1.00000000
                     8     1      -1.673920      0.00000000
                     8     2      -1.005297      1.00000000
                     8     3      -0.810204      0.00000000
                     8     4      -0.810204      0.00000000
                     8     5       0.175285      1.00000000
                     9     1      -1.717194      0.01442261
                     9     2      -1.044798      0.00000000
                     9     3      -1.044798      0.00000000
                     9     4      -1.008045      1.00000000
                     9     5      -0.403957      0.98557739
                    10     1      -1.651551      0.02848140
                    10     2      -1.056604      0.00000000
                    10     3      -1.056132      0.00000000
                    10     4      -1.009315      0.99995697
                    10     5      -0.466781      0.97156163
                    11     1      -1.501102      0.00000000
                    11     2      -1.344165      0.06908933
                    11     3      -1.035350      0.00000000
                    11     4      -0.702489      0.93161229
                    11     5      -0.171361      0.99929838
                    12     1      -1.392846      0.00000000
                    12     2      -1.035392      0.15595661
                    12     3      -0.831993      0.00000000
                    12     4      -0.632214      0.84404339
                    12     5       0.377245      1.00000000
                    13     1      -1.428187      0.00000000
                    13     2      -0.786231      0.63697421
                    13     3      -0.563927      0.00000000
                    13     4      -0.541426      0.36302579
                    13     5       0.797643      1.00000000
                    14     1      -1.457307      0.00000000
                    14     2      -0.719418      0.97564847
                    14     3      -0.418043      0.02435153
                    14     4      -0.408080      0.00000000
                    14     5       1.013423      1.00000000
                    15     1      -1.457307      0.00000000
                    15     2      -0.719418      0.97564847
                    15     3      -0.418043      0.02435153
                    15     4      -0.408080      0.00000000
                    15     5       1.013423      1.00000000
                    16     1      -1.428187      0.00000000
                    16     2      -0.786231      0.63697421
                    16     3      -0.563927      0.00000000
                    16     4      -0.541426      0.36302579
                    16     5       0.797643      1.00000000
                    17     1      -1.392846      0.00000000
                    17     2      -1.035392      0.15595661
                    17     3      -0.831993      0.00000000
                    17     4      -0.632214      0.84404339
                    17     5       0.377245      1.00000000
                    18     1      -1.501102      0.00000000
                    18     2      -1.344165      0.06908933
                    18     3      -1.035350      0.00000000
                    18     4      -0.702489      0.93161229
                    18     5      -0.171361      0.99929838
                    19     1      -1.665423      0.00000000
                    19     2      -1.006775      1.00000000
                    19     3      -0.863853      0.00000000
                    19     4      -0.863407      0.00000000
                    19     5       0.070005      1.00000000
                    20     1      -1.357212      0.00000000
                    20     2      -1.108157      0.09335129
                    20     3      -0.887620      0.00000000
                    20     4      -0.618980      0.90664871
                    20     5       0.318172      1.00000000
                    21     1      -1.055175      0.00000000
                    21     2      -1.043784      0.01691900
                    21     3      -0.864700      0.00000000
                    21     4      -0.474755      0.98308100
                    21     5       0.853255      1.00000000
                    22     1      -1.058227      0.00000000
                    22     2      -0.754076      0.03542591
                    22     3      -0.619519      0.00000000
                    22     4      -0.422151      0.96457409
                    22     5       1.304008      1.00000000
                    23     1      -1.082960      0.00000000
                    23     2      -0.522825      0.09136791
                    23     3      -0.462823      0.00000000
                    23     4      -0.417426      0.90863209
                    23     5       1.536521      1.00000000
                    24     1      -1.082960      0.00000000
                    24     2      -0.522825      0.09136791
                    24     3      -0.462823      0.00000000
                    24     4      -0.417426      0.90863209
                    24     5       1.536521      1.00000000
                    25     1      -1.058227      0.00000000
                    25     2      -0.754076      0.03542591
                    25     3      -0.619519      0.00000000
                    25     4      -0.422151      0.96457409
                    25     5       1.304008      1.00000000
                    26     1      -1.055175      0.00000000
                    26     2      -1.043784      0.01691900
                    26     3      -0.864700      0.00000000
                    26     4      -0.474755      0.98308100
                    26     5       0.853255      1.00000000
                    27     1      -1.357212      0.00000000
                    27     2      -1.108157      0.09335129
                    27     3      -0.887620      0.00000000
                    27     4      -0.618980      0.90664871
                    27     5       0.318172      1.00000000
                    28     1      -1.737050      0.00000000
                    28     2      -1.005685      1.00000000
                    28     3      -0.607009      0.00000000
                    28     4      -0.606897      0.00000000
                    28     5       0.494453      1.00000000
                    29     1      -1.376648      0.00000000
                    29     2      -0.827592      0.35480006
                    29     3      -0.636746      0.00000000
                    29     4      -0.562304      0.64519994
                    29     5       0.736788      1.00000000
                    30     1      -0.980825      0.00000000
                    30     2      -0.849070      0.01520200
                    30     3      -0.698939      0.00000000
                    30     4      -0.407656      0.98479800
                    30     5       1.313525      1.00000000
                    31     1      -0.773559      0.00370232
                    31     2      -0.766915      0.00000000
                    31     3      -0.670982      0.00000000
                    31     4      -0.332504      0.99629768
                    31     5       1.853585      1.00000000
                    32     1      -0.788752      0.00000000
                    32     2      -0.596373      0.00181354
                    32     3      -0.516857      0.00000000
                    32     4      -0.306600      0.99818646
                    32     5       2.147570      1.00000000
                    33     1      -0.788752      0.00000000
                    33     2      -0.596373      0.00181354
                    33     3      -0.516857      0.00000000
                    33     4      -0.306600      0.99818646
                    33     5       2.147570      1.00000000
                    34     1      -0.773559      0.00370232
                    34     2      -0.766915      0.00000000
                    34     3      -0.670982      0.00000000
                    34     4      -0.332504      0.99629768
                    34     5       1.853585      1.00000000
                    35     1      -0.980825      0.00000000
                    35     2      -0.849070      0.01520200
                    35     3      -0.698939      0.00000000
                    35     4      -0.407656      0.98479800
                    35     5       1.313525      1.00000000
                    36     1      -1.376648      0.00000000
                    36     2      -0.827592      0.35480006
                    36     3      -0.636746      0.00000000
                    36     4      -0.562304      0.64519994
                    36     5       0.736788      1.00000000
                    37     1      -1.817048      0.00000000
                    37     2      -1.004492      1.00000000
                    37     3      -0.423036      0.00000000
                    37     4      -0.422812      0.00000000
                    37     5       0.759461      1.00000000
                    38     1      -1.408610      0.00000000
                    38     2      -0.697340      0.86877867
                    38     3      -0.457801      0.13122133
                    38     4      -0.452326      0.00000000
                    38     5       0.997926      1.00000000
                    39     1      -1.007302      0.00000000
                    39     2      -0.604963      0.03202006
                    39     3      -0.514177      0.00000000
                    39     4      -0.384399      0.96797994
                    39     5       1.607472      1.00000000
                    40     1      -0.711559      0.00000000
                    40     2      -0.660046      0.00166591
                    40     3      -0.570187      0.00000000
                    40     4      -0.294460      0.99833409
                    40     5       2.235680      1.00000000
                    41     1      -0.612645      0.00021265
                    41     2      -0.600141      0.00000000
                    41     3      -0.552733      0.00000000
                    41     4      -0.265061      0.99978735
                    41     5       2.610074      1.00000000
                    42     1      -0.612645      0.00021265
                    42     2      -0.600141      0.00000000
                    42     3      -0.552733      0.00000000
                    42     4      -0.265061      0.99978735
                    42     5       2.610074      1.00000000
                    43     1      -0.711559      0.00000000
                    43     2      -0.660046      0.00166591
                    43     3      -0.570187      0.00000000
                    43     4      -0.294460      0.99833409
                    43     5       2.235680      1.00000000
                    44     1      -1.007302      0.00000000
                    44     2      -0.604963      0.03202006
                    44     3      -0.514177      0.00000000
                    44     4      -0.384399      0.96797994
                    44     5       1.607472      1.00000000
                    45     1      -1.408610      0.00000000
                    45     2      -0.697340      0.86877867
                    45     3      -0.457801      0.13122133
                    45     4      -0.452326      0.00000000
                    45     5       0.997926      1.00000000
                    46     1      -1.848361      0.00000000
                    46     2      -1.005108      1.00000000
                    46     3      -0.357492      0.00000000
                    46     4      -0.357227      0.00000000
                    46     5       0.850568      1.00000000
                    47     1      -1.420248      0.00000000
                    47     2      -0.673917      1.00000000
                    47     3      -0.399111      0.00000000
                    47     4      -0.386682      0.00000000
                    47     5       1.085987      1.00000000
                    48     1      -1.017196      0.00000000
                    48     2      -0.494500      0.00000000
                    48     3      -0.449209      0.00000000
                    48     4      -0.389003      1.00000000
                    48     5       1.704332      1.00000000
                    49     1      -0.722853      0.00000000
                    49     2      -0.579947      0.00000000
                    49     3      -0.505045      0.00000000
                    49     4      -0.285166      1.00000000
                    49     5       2.366202      1.00000000
                    50     1      -0.584512      0.00000000
                    50     2      -0.564979      0.00000000
                    50     3      -0.534584      0.00000000
                    50     4      -0.255335      1.00000000
                    50     5       2.783149      1.00000000
                    51     1      -0.584512      0.00000000
                    51     2      -0.564979      0.00000000
                    51     3      -0.534584      0.00000000
                    51     4      -0.255335      1.00000000
                    51     5       2.783149      1.00000000
                    52     1      -0.722853      0.00000000
                    52     2      -0.579947      0.00000000
                    52     3      -0.505045      0.00000000
                    52     4      -0.285166      1.00000000
                    52     5       2.366202      1.00000000
                    53     1      -1.017196      0.00000000
                    53     2      -0.494500      0.00000000
                    53     3      -0.449209      0.00000000
                    53     4      -0.389003      1.00000000
                    53     5       1.704332      1.00000000
                    54     1      -1.420248      0.00000000
                    54     2      -0.673917      1.00000000
                    54     3      -0.399111      0.00000000
                    54     4      -0.386682      0.00000000
                    54     5       1.085987      1.00000000
                    55     1      -1.817048      0.00000000
                    55     2      -1.004492      1.00000000
                    55     3      -0.423036      0.00000000
                    55     4      -0.422812      0.00000000
                    55     5       0.759461      1.00000000
                    56     1      -1.408610      0.00000000
                    56     2      -0.697340      0.86877867
                    56     3      -0.457801      0.13122133
                    56     4      -0.452326      0.00000000
                    56     5       0.997926      1.00000000
                    57     1      -1.007302      0.00000000
                    57     2      -0.604963      0.03202006
                    57     3      -0.514177      0.00000000
                    57     4      -0.384399      0.96797994
                    57     5       1.607472      1.00000000
                    58     1      -0.711559      0.00000000
                    58     2      -0.660046      0.00166591
                    58     3      -0.570187      0.00000000
                    58     4      -0.294460      0.99833409
                    58     5       2.235680      1.00000000
                    59     1      -0.612645      0.00021265
                    59     2      -0.600141      0.00000000
                    59     3      -0.552733      0.00000000
                    59     4      -0.265061      0.99978735
                    59     5       2.610074      1.00000000
                    60     1      -0.612645      0.00021265
                    60     2      -0.600141      0.00000000
                    60     3      -0.552733      0.00000000
                    60     4      -0.265061      0.99978735
                    60     5       2.610074      1.00000000
                    61     1      -0.711559      0.00000000
                    61     2      -0.660046      0.00166591
                    61     3      -0.570187      0.00000000
                    61     4      -0.294460      0.99833409
                    61     5       2.235680      1.00000000
                    62     1      -1.007302      0.00000000
                    62     2      -0.604963      0.03202006
                    62     3      -0.514177      0.00000000
                    62     4      -0.384399      0.96797994
                    62     5       1.607472      1.00000000
                    63     1      -1.408610      0.00000000
                    63     2      -0.697340      0.86877867
                    63     3      -0.457801      0.13122133
                    63     4      -0.452326      0.00000000
                    63     5       0.997926      1.00000000
                    64     1      -1.737050      0.00000000
                    64     2      -1.005685      1.00000000
                    64     3      -0.607009      0.00000000
                    64     4      -0.606897      0.00000000
                    64     5       0.494453      1.00000000
                    65     1      -1.376648      0.00000000
                    65     2      -0.827592      0.35480006
                    65     3      -0.636746      0.00000000
                    65     4      -0.562304      0.64519994
                    65     5       0.736788      1.00000000
                    66     1      -0.980825      0.00000000
                    66     2      -0.849070      0.01520200
                    66     3      -0.698939      0.00000000
                    66     4      -0.407656      0.98479800
                    66     5       1.313525      1.00000000
                    67     1      -0.773559      0.00370232
                    67     2      -0.766915      0.00000000
                    67     3      -0.670982      0.00000000
                    67     4      -0.332504      0.99629768
                    67     5       1.853585      1.00000000
                    68     1      -0.788752      0.00000000
                    68     2      -0.596373      0.00181354
                    68     3      -0.516857      0.00000000
                    68     4      -0.306600      0.99818646
                    68     5       2.147570      1.00000000
                    69     1      -0.788752      0.00000000
                    69     2      -0.596373      0.00181354
                    69     3      -0.516857      0.00000000
                    69     4      -0.306600      0.99818646
                    69     5       2.147570      1.00000000
                    70     1      -0.773559      0.00370232
                    70     2      -0.766915      0.00000000
                    70     3      -0.670982      0.00000000
                    70     4      -0.332504      0.99629768
                    70     5       1.853585      1.00000000
                    71     1      -0.980825      0.00000000
                    71     2      -0.849070      0.01520200
                    71     3      -0.698939      0.00000000
                    71     4      -0.407656      0.98479800
                    71     5       1.313525      1.00000000
                    72     1      -1.376648      0.00000000
                    72     2      -0.827592      0.35480006
                    72     3      -0.636746      0.00000000
                    72     4      -0.562304      0.64519994
                    72     5       0.736788      1.00000000
                    73     1      -1.665423      0.00000000
                    73     2      -1.006775      1.00000000
                    73     3      -0.863853      0.00000000
                    73     4      -0.863407      0.00000000
                    73     5       0.070005      1.00000000
                    74     1      -1.357212      0.00000000
                    74     2      -1.108157      0.09335129
                    74     3      -0.887620      0.00000000
                    74     4      -0.618980      0.90664871
                    74     5       0.318172      1.00000000
                    75     1      -1.055175      0.00000000
                    75     2      -1.043784      0.01691900
                    75     3      -0.864700      0.00000000
                    75     4      -0.474755      0.98308100
                    75     5       0.853255      1.00000000
                    76     1      -1.058227      0.00000000
                    76     2      -0.754076      0.03542591
                    76     3      -0.619519      0.00000000
                    76     4      -0.422151      0.96457409
                    76     5       1.304008      1.00000000
                    77     1      -1.082960      0.00000000
                    77     2      -0.522825      0.09136791
                    77     3      -0.462823      0.00000000
                    77     4      -0.417426      0.90863209
                    77     5       1.536521      1.00000000
                    78     1      -1.082960      0.00000000
                    78     2      -0.522825      0.09136791
                    78     3      -0.462823      0.00000000
                    78     4      -0.417426      0.90863209
                    78     5       1.536521      1.00000000
                    79     1      -1.058227      0.00000000
                    79     2      -0.754076      0.03542591
                    79     3      -0.619519      0.00000000
                    79     4      -0.422151      0.96457409
                    79     5       1.304008      1.00000000
                    80     1      -1.055175      0.00000000
                    80     2      -1.043784      0.01691900
                    80     3      -0.864700      0.00000000
                    80     4      -0.474755      0.98308100
                    80     5       0.853255      1.00000000
                    81     1      -1.357212      0.00000000
                    81     2      -1.108157      0.09335129
                    81     3      -0.887620      0.00000000
                    81     4      -0.618980      0.90664871
                    81     5       0.318172      1.00000000
                    82     1      -1.651551      0.02848140
                    82     2      -1.056604      0.00000000
                    82     3      -1.056132      0.00000000
                    82     4      -1.009315      0.99995697
                    82     5      -0.466781      0.97156163
                    83     1      -1.501102      0.00000000
                    83     2      -1.344165      0.06908933
                    83     3      -1.035350      0.00000000
                    83     4      -0.702489      0.93161229
                    83     5      -0.171361      0.99929838
                    84     1      -1.392846      0.00000000
                    84     2      -1.035392      0.15595661
                    84     3      -0.831993      0.00000000
                    84     4      -0.632214      0.84404339
                    84     5       0.377245      1.00000000
                    85     1      -1.428187      0.00000000
                    85     2      -0.786231      0.63697421
                    85     3      -0.563927      0.00000000
                    85     4      -0.541426      0.36302579
                    85     5       0.797643      1.00000000
                    86     1      -1.457307      0.00000000
                    86     2      -0.719418      0.97564847
                    86     3      -0.418043      0.02435153
                    86     4      -0.408080      0.00000000
                    86     5       1.013423      1.00000000
                    87     1      -1.457307      0.00000000
                    87     2      -0.719418      0.97564847
                    87     3      -0.418043      0.02435153
                    87     4      -0.408080      0.00000000
                    87     5       1.013423      1.00000000
                    88     1      -1.428187      0.00000000
                    88     2      -0.786231      0.63697421
                    88     3      -0.563927      0.00000000
                    88     4      -0.541426      0.36302579
                    88     5       0.797643      1.00000000
                    89     1      -1.392846      0.00000000
                    89     2      -1.035392      0.15595661
                    89     3      -0.831993      0.00000000
                    89     4      -0.632214      0.84404339
                    89     5       0.377245      1.00000000
                    90     1      -1.501102      0.00000000
                    90     2      -1.344165      0.06908933
                    90     3      -1.035350      0.00000000
                    90     4      -0.702489      0.93161229
                    90     5      -0.171361      0.99929838
                    91     1      -1.651551      0.02848140
                    91     2      -1.056604      0.00000000
                    91     3      -1.056132      0.00000000
                    91     4      -1.009315      0.99995697
                    91     5      -0.466781      0.97156163
                    92     1      -1.501102      0.00000000
                    92     2      -1.344165      0.06908933
                    92     3      -1.035350      0.00000000
                    92     4      -0.702489      0.93161229
                    92     5      -0.171361      0.99929838
                    93     1      -1.392846      0.00000000
                    93     2      -1.035392      0.15595661
                    93     3      -0.831993      0.00000000
                    93     4      -0.632214      0.84404339
                    93     5       0.377245      1.00000000
                    94     1      -1.428187      0.00000000
                    94     2      -0.786231      0.63697421
                    94     3      -0.563927      0.00000000
                    94     4      -0.541426      0.36302579
                    94     5       0.797643      1.00000000
                    95     1      -1.457307      0.00000000
                    95     2      -0.719418      0.97564847
                    95     3      -0.418043      0.02435153
                    95     4      -0.408080      0.00000000
                    95     5       1.013423      1.00000000
                    96     1      -1.457307      0.00000000
                    96     2      -0.719418      0.97564847
                    96     3      -0.418043      0.02435153
                    96     4      -0.408080      0.00000000
                    96     5       1.013423      1.00000000
                    97     1      -1.428187      0.00000000
                    97     2      -0.786231      0.63697421
                    97     3      -0.563927      0.00000000
                    97     4      -0.541426      0.36302579
                    97     5       0.797643      1.00000000
                    98     1      -1.392846      0.00000000
                    98     2      -1.035392      0.15595661
                    98     3      -0.831993      0.00000000
                    98     4      -0.632214      0.84404339
                    98     5       0.377245      1.00000000
                    99     1      -1.501102      0.00000000
                    99     2      -1.344165      0.06908933
                    99     3      -1.035350      0.00000000
                    99     4      -0.702489      0.93161229
                    99     5      -0.171361      0.99929838
                   100     1      -1.526457      0.00000000
                   100     2      -1.355913      0.07778747
                   100     3      -1.041223      0.00000000
                   100     4      -0.717785      0.92221253
                   100     5      -0.222254      1.00000000
                   101     1      -1.368098      0.01693027
                   101     2      -1.343039      0.02846551
                   101     3      -1.272656      0.00068808
                   101     4      -0.229226      0.97153449
                   101     5      -0.161884      0.98238165
                   102     1      -1.336327      0.00000000
                   102     2      -1.007428      0.05376586
                   102     3      -0.996848      0.00000000
                   102     4      -0.245968      0.94623414
                   102     5       0.467084      1.00000000
                   103     1      -1.351781      0.00000000
                   103     2      -0.677867      0.13822063
                   103     3      -0.670097      0.00000000
                   103     4      -0.273705      0.86177937
                   103     5       0.917465      1.00000000
                   104     1      -1.368364      0.00000000
                   104     2      -0.479443      0.00000000
                   104     3      -0.452384      0.42166610
                   104     4      -0.329869      0.57833390
                   104     5       1.143098      1.00000000
                   105     1      -1.368364      0.00000000
                   105     2      -0.479443      0.00000000
                   105     3      -0.452384      0.42166610
                   105     4      -0.329869      0.57833390
                   105     5       1.143098      1.00000000
                   106     1      -1.351781      0.00000000
                   106     2      -0.677867      0.13822063
                   106     3      -0.670097      0.00000000
                   106     4      -0.273705      0.86177937
                   106     5       0.917465      1.00000000
                   107     1      -1.336327      0.00000000
                   107     2      -1.007428      0.05376586
                   107     3      -0.996848      0.00000000
                   107     4      -0.245968      0.94623414
                   107     5       0.467084      1.00000000
                   108     1      -1.368098      0.01693027
                   108     2      -1.343039      0.02846551
                   108     3      -1.272656      0.00068808
                   108     4      -0.229226      0.97153449
                   108     5      -0.161884      0.98238165
                   109     1      -1.393747      0.00000000
                   109     2      -1.100484      0.12828518
                   109     3      -0.883294      0.00000000
                   109     4      -0.644810      0.87171482
                   109     5       0.274893      1.00000000
                   110     1      -1.315610      0.00024713
                   110     2      -1.081550      0.01921357
                   110     3      -1.070277      0.02146068
                   110     4      -0.196061      0.95907862
                   110     5       0.379182      1.00000000
                   111     1      -1.065319      0.00000000
                   111     2      -1.020064      0.00000000
                   111     3      -0.984409      0.00000000
                   111     4       0.021069      1.00000000
                   111     5       0.848771      1.00000000
                   112     1      -1.062906      0.00000000
                   112     2      -0.748292      0.00000000
                   112     3      -0.657566      0.00000000
                   112     4       0.028913      1.00000000
                   112     5       1.324205      1.00000000
                   113     1      -1.071595      0.00185937
                   113     2      -0.549998      0.00000019
                   113     3      -0.435679      0.00626091
                   113     4      -0.007646      0.99187953
                   113     5       1.569999      1.00000000
                   114     1      -1.071595      0.00185937
                   114     2      -0.549998      0.00000019
                   114     3      -0.435679      0.00626091
                   114     4      -0.007646      0.99187953
                   114     5       1.569999      1.00000000
                   115     1      -1.062906      0.00000000
                   115     2      -0.748292      0.00000000
                   115     3      -0.657566      0.00000000
                   115     4       0.028913      1.00000000
                   115     5       1.324205      1.00000000
                   116     1      -1.065319      0.00000000
                   116     2      -1.020064      0.00000000
                   116     3      -0.984409      0.00000000
                   116     4       0.021069      1.00000000
                   116     5       0.848771      1.00000000
                   117     1      -1.315610      0.00024713
                   117     2      -1.081550      0.01921357
                   117     3      -1.070277      0.02146068
                   117     4      -0.196061      0.95907862
                   117     5       0.379182      1.00000000
                   118     1      -1.415868      0.00000000
                   118     2      -0.837949      0.46690492
                   118     3      -0.631459      0.00000000
                   118     4      -0.577134      0.53309508
                   118     5       0.693624      1.00000000
                   119     1      -1.321860      0.00016965
                   119     2      -0.766706      0.03122721
                   119     3      -0.757201      0.05600436
                   119     4      -0.220782      0.91259879
                   119     5       0.836363      1.00000000
                   120     1      -0.996480      0.00000000
                   120     2      -0.833954      0.00000000
                   120     3      -0.746809      0.00000000
                   120     4       0.067064      1.00000000
                   120     5       1.318065      1.00000000
                   121     1      -0.781871      0.00000000
                   121     2      -0.743203      0.00000000
                   121     3      -0.675295      0.00000000
                   121     4       0.133910      1.00000000
                   121     5       1.852551      1.00000000
                   122     1      -0.780605      0.00000000
                   122     2      -0.593897      0.00000000
                   122     3      -0.483111      0.00000000
                   122     4       0.129219      1.00000000
                   122     5       2.150741      1.00000000
                   123     1      -0.780605      0.00000000
                   123     2      -0.593897      0.00000000
                   123     3      -0.483111      0.00000000
                   123     4       0.129219      1.00000000
                   123     5       2.150741      1.00000000
                   124     1      -0.781871      0.00000000
                   124     2      -0.743203      0.00000000
                   124     3      -0.675295      0.00000000
                   124     4       0.133910      1.00000000
                   124     5       1.852551      1.00000000
                   125     1      -0.996480      0.00000000
                   125     2      -0.833954      0.00000000
                   125     3      -0.746809      0.00000000
                   125     4       0.067064      1.00000000
                   125     5       1.318065      1.00000000
                   126     1      -1.321860      0.00016965
                   126     2      -0.766706      0.03122721
                   126     3      -0.757201      0.05600436
                   126     4      -0.220782      0.91259879
                   126     5       0.836363      1.00000000
                   127     1      -1.449034      0.00000000
                   127     2      -0.734553      0.90905179
                   127     3      -0.453185      0.09094821
                   127     4      -0.446966      0.00000000
                   127     5       0.954770      1.00000000
                   128     1      -1.337442      0.00012228
                   128     2      -0.536991      0.00120835
                   128     3      -0.512865      0.19157757
                   128     4      -0.264459      0.80709180
                   128     5       1.114700      1.00000000
                   129     1      -1.002890      0.00000000
                   129     2      -0.615980      0.00000000
                   129     3      -0.506905      0.00000000
                   129     4       0.050353      1.00000000
                   129     5       1.626884      1.00000000
                   130     1      -0.703542      0.00000000
                   130     2      -0.639447      0.00000000
                   130     3      -0.548355      0.00000000
                   130     4       0.147278      1.00000000
                   130     5       2.235569      1.00000000
                   131     1      -0.585616      0.00000000
                   131     2      -0.573586      0.00000000
                   131     3      -0.517679      0.00000000
                   131     4       0.153266      1.00000000
                   131     5       2.610463      1.00000000
                   132     1      -0.585616      0.00000000
                   132     2      -0.573586      0.00000000
                   132     3      -0.517679      0.00000000
                   132     4       0.153266      1.00000000
                   132     5       2.610463      1.00000000
                   133     1      -0.703542      0.00000000
                   133     2      -0.639447      0.00000000
                   133     3      -0.548355      0.00000000
                   133     4       0.147278      1.00000000
                   133     5       2.235569      1.00000000
                   134     1      -1.002890      0.00000000
                   134     2      -0.615980      0.00000000
                   134     3      -0.506905      0.00000000
                   134     4       0.050353      1.00000000
                   134     5       1.626884      1.00000000
                   135     1      -1.337442      0.00012228
                   135     2      -0.536991      0.00120835
                   135     3      -0.512865      0.19157757
                   135     4      -0.264459      0.80709180
                   135     5       1.114700      1.00000000
                   136     1      -1.461194      0.00000000
                   136     2      -0.717148      1.00000000
                   136     3      -0.391939      0.00000000
                   136     4      -0.381609      0.00000000
                   136     5       1.042891      1.00000000
                   137     1      -1.344559      0.00011114
                   137     2      -0.455997      0.00000000
                   137     3      -0.366390      0.00000000
                   137     4      -0.339851      0.99988886
                   137     5       1.206196      1.00000000
                   138     1      -1.006964      0.00000000
                   138     2      -0.529322      0.00000000
                   138     3      -0.406727      0.00000000
                   138     4       0.030388      1.00000000
                   138     5       1.728392      1.00000000
                   139     1      -0.706960      0.00000000
                   139     2      -0.570283      0.00000000
                   139     3      -0.464686      0.00000000
                   139     4       0.141255      1.00000000
                   139     5       2.367966      1.00000000
                   140     1      -0.553764      0.00000000
                   140     2      -0.529433      0.00000000
                   140     3      -0.496681      0.00000000
                   140     4       0.149693      1.00000000
                   140     5       2.784924      1.00000000
                   141     1      -0.553764      0.00000000
                   141     2      -0.529433      0.00000000
                   141     3      -0.496681      0.00000000
                   141     4       0.149693      1.00000000
                   141     5       2.784924      1.00000000
                   142     1      -0.706960      0.00000000
                   142     2      -0.570283      0.00000000
                   142     3      -0.464686      0.00000000
                   142     4       0.141255      1.00000000
                   142     5       2.367966      1.00000000
                   143     1      -1.006964      0.00000000
                   143     2      -0.529322      0.00000000
                   143     3      -0.406727      0.00000000
                   143     4       0.030388      1.00000000
                   143     5       1.728392      1.00000000
                   144     1      -1.344559      0.00011114
                   144     2      -0.455997      0.00000000
                   144     3      -0.366390      0.00000000
                   144     4      -0.339851      0.99988886
                   144     5       1.206196      1.00000000
                   145     1      -1.449034      0.00000000
                   145     2      -0.734553      0.90905179
                   145     3      -0.453185      0.09094821
                   145     4      -0.446966      0.00000000
                   145     5       0.954770      1.00000000
                   146     1      -1.337442      0.00012228
                   146     2      -0.536991      0.00120835
                   146     3      -0.512865      0.19157757
                   146     4      -0.264459      0.80709180
                   146     5       1.114700      1.00000000
                   147     1      -1.002890      0.00000000
                   147     2      -0.615980      0.00000000
                   147     3      -0.506905      0.00000000
                   147     4       0.050353      1.00000000
                   147     5       1.626884      1.00000000
                   148     1      -0.703542      0.00000000
                   148     2      -0.639447      0.00000000
                   148     3      -0.548355      0.00000000
                   148     4       0.147278      1.00000000
                   148     5       2.235569      1.00000000
                   149     1      -0.585616      0.00000000
                   149     2      -0.573586      0.00000000
                   149     3      -0.517679      0.00000000
                   149     4       0.153266      1.00000000
                   149     5       2.610463      1.00000000
                   150     1      -0.585616      0.00000000
                   150     2      -0.573586      0.00000000
                   150     3      -0.517679      0.00000000
                   150     4       0.153266      1.00000000
                   150     5       2.610463      1.00000000
                   151     1      -0.703542      0.00000000
                   151     2      -0.639447      0.00000000
                   151     3      -0.548355      0.00000000
                   151     4       0.147278      1.00000000
                   151     5       2.235569      1.00000000
                   152     1      -1.002890      0.00000000
                   152     2      -0.615980      0.00000000
                   152     3      -0.506905      0.00000000
                   152     4       0.050353      1.00000000
                   152     5       1.626884      1.00000000
                   153     1      -1.337442      0.00012228
                   153     2      -0.536991      0.00120835
                   153     3      -0.512865      0.19157757
                   153     4      -0.264459      0.80709180
                   153     5       1.114700      1.00000000
                   154     1      -1.415868      0.00000000
                   154     2      -0.837949      0.46690492
                   154     3      -0.631459      0.00000000
                   154     4      -0.577134      0.53309508
                   154     5       0.693624      1.00000000
                   155     1      -1.321860      0.00016965
                   155     2      -0.766706      0.03122721
                   155     3      -0.757201      0.05600436
                   155     4      -0.220782      0.91259879
                   155     5       0.836363      1.00000000
                   156     1      -0.996480      0.00000000
                   156     2      -0.833954      0.00000000
                   156     3      -0.746809      0.00000000
                   156     4       0.067064      1.00000000
                   156     5       1.318065      1.00000000
                   157     1      -0.781871      0.00000000
                   157     2      -0.743203      0.00000000
                   157     3      -0.675295      0.00000000
                   157     4       0.133910      1.00000000
                   157     5       1.852551      1.00000000
                   158     1      -0.780605      0.00000000
                   158     2      -0.593897      0.00000000
                   158     3      -0.483111      0.00000000
                   158     4       0.129219      1.00000000
                   158     5       2.150741      1.00000000
                   159     1      -0.780605      0.00000000
                   159     2      -0.593897      0.00000000
                   159     3      -0.483111      0.00000000
                   159     4       0.129219      1.00000000
                   159     5       2.150741      1.00000000
                   160     1      -0.781871      0.00000000
                   160     2      -0.743203      0.00000000
                   160     3      -0.675295      0.00000000
                   160     4       0.133910      1.00000000
                   160     5       1.852551      1.00000000
                   161     1      -0.996480      0.00000000
                   161     2      -0.833954      0.00000000
                   161     3      -0.746809      0.00000000
                   161     4       0.067064      1.00000000
                   161     5       1.318065      1.00000000
                   162     1      -1.321860      0.00016965
                   162     2      -0.766706      0.03122721
                   162     3      -0.757201      0.05600436
                   162     4      -0.220782      0.91259879
                   162     5       0.836363      1.00000000
                   163     1      -1.393747      0.00000000
                   163     2      -1.100484      0.12828518
                   163     3      -0.883294      0.00000000
                   163     4      -0.644810      0.87171482
                   163     5       0.274893      1.00000000
                   164     1      -1.315610      0.00024713
                   164     2      -1.081550      0.01921357
                   164     3      -1.070277      0.02146068
                   164     4      -0.196061      0.95907862
                   164     5       0.379182      1.00000000
                   165     1      -1.065319      0.00000000
                   165     2      -1.020064      0.00000000
                   165     3      -0.984409      0.00000000
                   165     4       0.021069      1.00000000
                   165     5       0.848771      1.00000000
                   166     1      -1.062906      0.00000000
                   166     2      -0.748292      0.00000000
                   166     3      -0.657566      0.00000000
                   166     4       0.028913      1.00000000
                   166     5       1.324205      1.00000000
                   167     1      -1.071595      0.00185937
                   167     2      -0.549998      0.00000019
                   167     3      -0.435679      0.00626091
                   167     4      -0.007646      0.99187953
                   167     5       1.569999      1.00000000
                   168     1      -1.071595      0.00185937
                   168     2      -0.549998      0.00000019
                   168     3      -0.435679      0.00626091
                   168     4      -0.007646      0.99187953
                   168     5       1.569999      1.00000000
                   169     1      -1.062906      0.00000000
                   169     2      -0.748292      0.00000000
                   169     3      -0.657566      0.00000000
                   169     4       0.028913      1.00000000
                   169     5       1.324205      1.00000000
                   170     1      -1.065319      0.00000000
                   170     2      -1.020064      0.00000000
                   170     3      -0.984409      0.00000000
                   170     4       0.021069      1.00000000
                   170     5       0.848771      1.00000000
                   171     1      -1.315610      0.00024713
                   171     2      -1.081550      0.01921357
                   171     3      -1.070277      0.02146068
                   171     4      -0.196061      0.95907862
                   171     5       0.379182      1.00000000
                   172     1      -1.526457      0.00000000
                   172     2      -1.355913      0.07778747
                   172     3      -1.041223      0.00000000
                   172     4      -0.717785      0.92221253
                   172     5      -0.222254      1.00000000
                   173     1      -1.368098      0.01693027
                   173     2      -1.343039      0.02846551
                   173     3      -1.272656      0.00068808
[...]
                   839     3      -0.757201      0.05600436
                   839     4      -0.220782      0.91259879
                   839     5       0.836363      1.00000000
                   840     1      -0.996480      0.00000000
                   840     2      -0.833954      0.00000000
                   840     3      -0.746809      0.00000000
                   840     4       0.067064      1.00000000
                   840     5       1.318065      1.00000000
                   841     1      -0.781871      0.00000000
                   841     2      -0.743203      0.00000000
                   841     3      -0.675295      0.00000000
                   841     4       0.133910      1.00000000
                   841     5       1.852551      1.00000000
                   842     1      -0.780605      0.00000000
                   842     2      -0.593897      0.00000000
                   842     3      -0.483111      0.00000000
                   842     4       0.129219      1.00000000
                   842     5       2.150741      1.00000000
                   843     1      -0.780605      0.00000000
                   843     2      -0.593897      0.00000000
                   843     3      -0.483111      0.00000000
                   843     4       0.129219      1.00000000
                   843     5       2.150741      1.00000000
                   844     1      -0.781871      0.00000000
                   844     2      -0.743203      0.00000000
                   844     3      -0.675295      0.00000000
                   844     4       0.133910      1.00000000
                   844     5       1.852551      1.00000000
                   845     1      -0.996480      0.00000000
                   845     2      -0.833954      0.00000000
                   845     3      -0.746809      0.00000000
                   845     4       0.067064      1.00000000
                   845     5       1.318065      1.00000000
                   846     1      -1.321860      0.00016965
                   846     2      -0.766706      0.03122721
                   846     3      -0.757201      0.05600436
                   846     4      -0.220782      0.91259879
                   846     5       0.836363      1.00000000
                   847     1      -1.449034      0.00000000
                   847     2      -0.734553      0.90905179
                   847     3      -0.453185      0.09094821
                   847     4      -0.446966      0.00000000
                   847     5       0.954770      1.00000000
                   848     1      -1.337442      0.00012228
                   848     2      -0.536991      0.00120835
                   848     3      -0.512865      0.19157757
                   848     4      -0.264459      0.80709180
                   848     5       1.114700      1.00000000
                   849     1      -1.002890      0.00000000
                   849     2      -0.615980      0.00000000
                   849     3      -0.506905      0.00000000
                   849     4       0.050353      1.00000000
                   849     5       1.626884      1.00000000
                   850     1      -0.703542      0.00000000
                   850     2      -0.639447      0.00000000
                   850     3      -0.548355      0.00000000
                   850     4       0.147278      1.00000000
                   850     5       2.235569      1.00000000
                   851     1      -0.585616      0.00000000
                   851     2      -0.573586      0.00000000
                   851     3      -0.517679      0.00000000
                   851     4       0.153266      1.00000000
                   851     5       2.610463      1.00000000
                   852     1      -0.585616      0.00000000
                   852     2      -0.573586      0.00000000
                   852     3      -0.517679      0.00000000
                   852     4       0.153266      1.00000000
                   852     5       2.610463      1.00000000
                   853     1      -0.703542      0.00000000
                   853     2      -0.639447      0.00000000
                   853     3      -0.548355      0.00000000
                   853     4       0.147278      1.00000000
                   853     5       2.235569      1.00000000
                   854     1      -1.002890      0.00000000
                   854     2      -0.615980      0.00000000
                   854     3      -0.506905      0.00000000
                   854     4       0.050353      1.00000000
                   854     5       1.626884      1.00000000
                   855     1      -1.337442      0.00012228
                   855     2      -0.536991      0.00120835
                   855     3      -0.512865      0.19157757
                   855     4      -0.264459      0.80709180
                   855     5       1.114700      1.00000000
                   856     1      -1.461194      0.00000000
                   856     2      -0.717148      1.00000000
                   856     3      -0.391939      0.00000000
                   856     4      -0.381609      0.00000000
                   856     5       1.042891      1.00000000
                   857     1      -1.344559      0.00011114
                   857     2      -0.455997      0.00000000
                   857     3      -0.366390      0.00000000
                   857     4      -0.339851      0.99988886
                   857     5       1.206196      1.00000000
                   858     1      -1.006964      0.00000000
                   858     2      -0.529322      0.00000000
                   858     3      -0.406727      0.00000000
                   858     4       0.030388      1.00000000
                   858     5       1.728392      1.00000000
                   859     1      -0.706960      0.00000000
                   859     2      -0.570283      0.00000000
                   859     3      -0.464686      0.00000000
                   859     4       0.141255      1.00000000
                   859     5       2.367966      1.00000000
                   860     1      -0.553764      0.00000000
                   860     2      -0.529433      0.00000000
                   860     3      -0.496681      0.00000000
                   860     4       0.149693      1.00000000
                   860     5       2.784924      1.00000000
                   861     1      -0.553764      0.00000000
                   861     2      -0.529433      0.00000000
                   861     3      -0.496681      0.00000000
                   861     4       0.149693      1.00000000
                   861     5       2.784924      1.00000000
                   862     1      -0.706960      0.00000000
                   862     2      -0.570283      0.00000000
                   862     3      -0.464686      0.00000000
                   862     4       0.141255      1.00000000
                   862     5       2.367966      1.00000000
                   863     1      -1.006964      0.00000000
                   863     2      -0.529322      0.00000000
                   863     3      -0.406727      0.00000000
                   863     4       0.030388      1.00000000
                   863     5       1.728392      1.00000000
                   864     1      -1.344559      0.00011114
                   864     2      -0.455997      0.00000000
                   864     3      -0.366390      0.00000000
                   864     4      -0.339851      0.99988886
                   864     5       1.206196      1.00000000
                   865     1      -1.449034      0.00000000
                   865     2      -0.734553      0.90905179
                   865     3      -0.453185      0.09094821
                   865     4      -0.446966      0.00000000
                   865     5       0.954770      1.00000000
                   866     1      -1.337442      0.00012228
                   866     2      -0.536991      0.00120835
                   866     3      -0.512865      0.19157757
                   866     4      -0.264459      0.80709180
                   866     5       1.114700      1.00000000
                   867     1      -1.002890      0.00000000
                   867     2      -0.615980      0.00000000
                   867     3      -0.506905      0.00000000
                   867     4       0.050353      1.00000000
                   867     5       1.626884      1.00000000
                   868     1      -0.703542      0.00000000
                   868     2      -0.639447      0.00000000
                   868     3      -0.548355      0.00000000
                   868     4       0.147278      1.00000000
                   868     5       2.235569      1.00000000
                   869     1      -0.585616      0.00000000
                   869     2      -0.573586      0.00000000
                   869     3      -0.517679      0.00000000
                   869     4       0.153266      1.00000000
                   869     5       2.610463      1.00000000
                   870     1      -0.585616      0.00000000
                   870     2      -0.573586      0.00000000
                   870     3      -0.517679      0.00000000
                   870     4       0.153266      1.00000000
                   870     5       2.610463      1.00000000
                   871     1      -0.703542      0.00000000
                   871     2      -0.639447      0.00000000
                   871     3      -0.548355      0.00000000
                   871     4       0.147278      1.00000000
                   871     5       2.235569      1.00000000
                   872     1      -1.002890      0.00000000
                   872     2      -0.615980      0.00000000
                   872     3      -0.506905      0.00000000
                   872     4       0.050353      1.00000000
                   872     5       1.626884      1.00000000
                   873     1      -1.337442      0.00012228
                   873     2      -0.536991      0.00120835
                   873     3      -0.512865      0.19157757
                   873     4      -0.264459      0.80709180
                   873     5       1.114700      1.00000000
                   874     1      -1.415868      0.00000000
                   874     2      -0.837949      0.46690492
                   874     3      -0.631459      0.00000000
                   874     4      -0.577134      0.53309508
                   874     5       0.693624      1.00000000
                   875     1      -1.321860      0.00016965
                   875     2      -0.766706      0.03122721
                   875     3      -0.757201      0.05600436
                   875     4      -0.220782      0.91259879
                   875     5       0.836363      1.00000000
                   876     1      -0.996480      0.00000000
                   876     2      -0.833954      0.00000000
                   876     3      -0.746809      0.00000000
                   876     4       0.067064      1.00000000
                   876     5       1.318065      1.00000000
                   877     1      -0.781871      0.00000000
                   877     2      -0.743203      0.00000000
                   877     3      -0.675295      0.00000000
                   877     4       0.133910      1.00000000
                   877     5       1.852551      1.00000000
                   878     1      -0.780605      0.00000000
                   878     2      -0.593897      0.00000000
                   878     3      -0.483111      0.00000000
                   878     4       0.129219      1.00000000
                   878     5       2.150741      1.00000000
                   879     1      -0.780605      0.00000000
                   879     2      -0.593897      0.00000000
                   879     3      -0.483111      0.00000000
                   879     4       0.129219      1.00000000
                   879     5       2.150741      1.00000000
                   880     1      -0.781871      0.00000000
                   880     2      -0.743203      0.00000000
                   880     3      -0.675295      0.00000000
                   880     4       0.133910      1.00000000
                   880     5       1.852551      1.00000000
                   881     1      -0.996480      0.00000000
                   881     2      -0.833954      0.00000000
                   881     3      -0.746809      0.00000000
                   881     4       0.067064      1.00000000
                   881     5       1.318065      1.00000000
                   882     1      -1.321860      0.00016965
                   882     2      -0.766706      0.03122721
                   882     3      -0.757201      0.05600436
                   882     4      -0.220782      0.91259879
                   882     5       0.836363      1.00000000
                   883     1      -1.393747      0.00000000
                   883     2      -1.100484      0.12828518
                   883     3      -0.883294      0.00000000
                   883     4      -0.644810      0.87171482
                   883     5       0.274893      1.00000000
                   884     1      -1.315610      0.00024713
                   884     2      -1.081550      0.01921357
                   884     3      -1.070277      0.02146068
                   884     4      -0.196061      0.95907862
                   884     5       0.379182      1.00000000
                   885     1      -1.065319      0.00000000
                   885     2      -1.020064      0.00000000
                   885     3      -0.984409      0.00000000
                   885     4       0.021069      1.00000000
                   885     5       0.848771      1.00000000
                   886     1      -1.062906      0.00000000
                   886     2      -0.748292      0.00000000
                   886     3      -0.657566      0.00000000
                   886     4       0.028913      1.00000000
                   886     5       1.324205      1.00000000
                   887     1      -1.071595      0.00185937
                   887     2      -0.549998      0.00000019
                   887     3      -0.435679      0.00626091
                   887     4      -0.007646      0.99187953
                   887     5       1.569999      1.00000000
                   888     1      -1.071595      0.00185937
                   888     2      -0.549998      0.00000019
                   888     3      -0.435679      0.00626091
                   888     4      -0.007646      0.99187953
                   888     5       1.569999      1.00000000
                   889     1      -1.062906      0.00000000
                   889     2      -0.748292      0.00000000
                   889     3      -0.657566      0.00000000
                   889     4       0.028913      1.00000000
                   889     5       1.324205      1.00000000
                   890     1      -1.065319      0.00000000
                   890     2      -1.020064      0.00000000
                   890     3      -0.984409      0.00000000
                   890     4       0.021069      1.00000000
                   890     5       0.848771      1.00000000
                   891     1      -1.315610      0.00024713
                   891     2      -1.081550      0.01921357
                   891     3      -1.070277      0.02146068
                   891     4      -0.196061      0.95907862
                   891     5       0.379182      1.00000000
                   892     1      -1.526457      0.00000000
                   892     2      -1.355913      0.07778747
                   892     3      -1.041223      0.00000000
                   892     4      -0.717785      0.92221253
                   892     5      -0.222254      1.00000000
                   893     1      -1.368098      0.01693027
                   893     2      -1.343039      0.02846551
                   893     3      -1.272656      0.00068808
                   893     4      -0.229226      0.97153449
                   893     5      -0.161884      0.98238165
                   894     1      -1.336327      0.00000000
                   894     2      -1.007428      0.05376586
                   894     3      -0.996848      0.00000000
                   894     4      -0.245968      0.94623414
                   894     5       0.467084      1.00000000
                   895     1      -1.351781      0.00000000
                   895     2      -0.677867      0.13822063
                   895     3      -0.670097      0.00000000
                   895     4      -0.273705      0.86177937
                   895     5       0.917465      1.00000000
                   896     1      -1.368364      0.00000000
                   896     2      -0.479443      0.00000000
                   896     3      -0.452384      0.42166610
                   896     4      -0.329869      0.57833390
                   896     5       1.143098      1.00000000
                   897     1      -1.368364      0.00000000
                   897     2      -0.479443      0.00000000
                   897     3      -0.452384      0.42166610
                   897     4      -0.329869      0.57833390
                   897     5       1.143098      1.00000000
                   898     1      -1.351781      0.00000000
                   898     2      -0.677867      0.13822063
                   898     3      -0.670097      0.00000000
                   898     4      -0.273705      0.86177937
                   898     5       0.917465      1.00000000
                   899     1      -1.336327      0.00000000
                   899     2      -1.007428      0.05376586
                   899     3      -0.996848      0.00000000
                   899     4      -0.245968      0.94623414
                   899     5       0.467084      1.00000000
                   900     1      -1.368098      0.01693027
                   900     2      -1.343039      0.02846551
                   900     3      -1.272656      0.00068808
                   900     4      -0.229226      0.97153449
                   900     5      -0.161884      0.98238165
 ------------------------------------------------------------------------------

 Time for wannierise            0.417 (sec)

 Writing checkpoint file w2w.chk... done

 *---------------------------------------------------------------------------*
 |                               PLOTTING                                    |
 *---------------------------------------------------------------------------*
 
 
 Calculating interpolated band-structure
 
 Time to calculate interpolated band structure       0.073 (sec)
 
 Time for plotting              0.749 (sec)
 Total Execution Time           2.064 (sec)

 *===========================================================================*
 |                             TIMING INFORMATION                            |
 *===========================================================================*
 |    Tag                                                Ncalls      Time (s)|
 |---------------------------------------------------------------------------|
 |kmesh: get                                        :         1         0.179|
 |overlap: read                                     :         1         0.091|
 |dis: main                                         :         1         0.572|
 |wann: main                                        :         1         0.417|
 |plot: main                                        :         1         0.749|
 *---------------------------------------------------------------------------*
 
 All done: wannier90 exiting
