 written on  3Aug2019 at 14:56:41 
           2
        1089
    4    4    4    4    4    4    4    4    4    2    2    2    2    2    2
    2    2    2    2    2    2    2    2    2    2    2    2    2    2    2
    2    2    2    2    2    2    2    2    2    2    2    2    2    2    2
    2    2    2    2    2    2    2    2    2    2    2    2    2    2    2
    2    2    2    2    2    2    2    2    2    2    2    2    2    2    2
    2    2    2    2    2    2    2    2    2    2    2    2    2    2    2
    4    4    4    4    4    4    4    4    4    2    2    2    2    2    2
    2    2    2    1    1    1    1    1    1    1    1    1    1    1    1
    1    1    1    1    1    1    1    1    1    1    1    1    1    1    1
    1    1    1    1    1    1    1    1    1    1    1    1    1    1    1
    1    1    1    1    1    1    1    1    1    1    1    1    1    1    1
    1    1    1    1    1    1    1    1    1    1    1    1    1    1    1
    1    1    1    1    1    1    1    1    1    2    2    2    2    2    2
    2    2    2    2    2    2    2    2    2    2    2    2    1    1    1
    1    1    1    1    1    1    1    1    1    1    1    1    1    1    1
    1    1    1    1    1    1    1    1    1    1    1    1    1    1    1
    1    1    1    1    1    1    1    1    1    1    1    1    1    1    1
    1    1    1    1    1    1    1    1    1    1    1    1    1    1    1
    1    1    1    1    1    1    1    1    1    1    1    1    1    1    1
    1    1    1    2    2    2    2    2    2    2    2    2    2    2    2
    2    2    2    2    2    2    1    1    1    1    1    1    1    1    1
    1    1    1    1    1    1    1    1    1    1    1    1    1    1    1
    1    1    1    1    1    1    1    1    1    1    1    1    1    1    1
    1    1    1    1    1    1    1    1    1    1    1    1    1    1    1
    1    1    1    1    1    1    1    1    1    1    1    1    1    1    1
    1    1    1    1    1    1    1    1    1    1    1    1    2    2    2
    2    2    2    2    2    2    2    2    2    2    2    2    2    2    2
    1    1    1    1    1    1    1    1    1    1    1    1    1    1    1
    1    1    1    1    1    1    1    1    1    1    1    1    1    1    1
    1    1    1    1    1    1    1    1    1    1    1    1    1    1    1
    1    1    1    1    1    1    1    1    1    1    1    1    1    1    1
    1    1    1    1    1    1    1    1    1    1    1    1    1    1    1
    1    1    1    1    1    1    2    2    2    2    2    2    2    2    2
    2    2    2    2    2    2    2    2    2    1    1    1    1    1    1
    1    1    1    1    1    1    1    1    1    1    1    1    1    1    1
    1    1    1    1    1    1    1    1    1    1    1    1    1    1    1
    1    1    1    1    1    1    1    1    1    1    1    1    1    1    1
    1    1    1    1    1    1    1    1    1    1    1    1    1    1    1
    1    1    1    1    1    1    1    1    1    1    1    1    1    1    1
    2    2    2    2    2    2    2    2    2    2    2    2    2    2    2
    2    2    2    1    1    1    1    1    1    1    1    1    1    1    1
    1    1    1    1    1    1    1    1    1    1    1    1    1    1    1
    1    1    1    1    1    1    1    1    1    1    1    1    1    1    1
    1    1    1    1    1    1    1    1    1    1    1    1    1    1    1
    1    1    1    1    1    1    1    1    1    1    1    1    1    1    1
    1    1    1    1    1    1    1    1    1    2    2    2    2    2    2
    2    2    2    2    2    2    2    2    2    2    2    2    1    1    1
    1    1    1    1    1    1    1    1    1    1    1    1    1    1    1
    1    1    1    1    1    1    1    1    1    1    1    1    1    1    1
    1    1    1    1    1    1    1    1    1    1    1    1    1    1    1
    1    1    1    1    1    1    1    1    1    1    1    1    1    1    1
    1    1    1    1    1    1    1    1    1    1    1    1    1    1    1
    1    1    1    2    2    2    2    2    2    2    2    2    2    2    2
    2    2    2    2    2    2    1    1    1    1    1    1    1    1    1
    1    1    1    1    1    1    1    1    1    1    1    1    1    1    1
    1    1    1    1    1    1    1    1    1    1    1    1    1    1    1
    1    1    1    1    1    1    1    1    1    1    1    1    1    1    1
    1    1    1    1    1    1    1    1    1    1    1    1    1    1    1
    1    1    1    1    1    1    1    1    1    1    1    1    2    2    2
    2    2    2    2    2    2    2    2    2    2    2    2    2    2    2
    1    1    1    1    1    1    1    1    1    1    1    1    1    1    1
    1    1    1    1    1    1    1    1    1    1    1    1    1    1    1
    1    1    1    1    1    1    1    1    1    1    1    1    1    1    1
    1    1    1    1    1    1    1    1    1    1    1    1    1    1    1
    1    1    1    1    1    1    1    1    1    1    1    1    1    1    1
    1    1    1    1    1    1    2    2    2    2    2    2    2    2    2
    4    4    4    4    4    4    4    4    4    2    2    2    2    2    2
    2    2    2    2    2    2    2    2    2    2    2    2    2    2    2
    2    2    2    2    2    2    2    2    2    2    2    2    2    2    2
    2    2    2    2    2    2    2    2    2    2    2    2    2    2    2
    2    2    2    2    2    2    2    2    2    2    2    2    2    2    2
    2    2    2    2    2    2    2    2    2    2    2    2    2    2    2
    4    4    4    4    4    4    4    4    4
   -5   -5   -4    1    1    0.000069    0.000000
   -5   -5   -4    2    1   -0.000000   -0.000000
   -5   -5   -4    1    2   -0.000000   -0.000000
   -5   -5   -4    2    2    0.000086   -0.000000
   -5   -5   -3    1    1    0.000044   -0.000000
   -5   -5   -3    2    1   -0.000000   -0.000000
   -5   -5   -3    1    2   -0.000000   -0.000000
   -5   -5   -3    2    2    0.000096   -0.000000
   -5   -5   -2    1    1    0.000018    0.000000
   -5   -5   -2    2    1   -0.000000    0.000000
   -5   -5   -2    1    2   -0.000000    0.000000
   -5   -5   -2    2    2    0.000248    0.000000
   -5   -5   -1    1    1   -0.000060   -0.000000
   -5   -5   -1    2    1   -0.000000   -0.000000
   -5   -5   -1    1    2   -0.000000   -0.000000
   -5   -5   -1    2    2    0.000055    0.000000
   -5   -5    0    1    1   -0.000066    0.000000
   -5   -5    0    2    1    0.000000   -0.000000
   -5   -5    0    1    2    0.000000    0.000000
   -5   -5    0    2    2   -0.000275    0.000000
   -5   -5    1    1    1   -0.000060    0.000000
   -5   -5    1    2    1   -0.000000    0.000000
   -5   -5    1    1    2   -0.000000    0.000000
   -5   -5    1    2    2    0.000055   -0.000000
   -5   -5    2    1    1    0.000018   -0.000000
   -5   -5    2    2    1   -0.000000   -0.000000
   -5   -5    2    1    2   -0.000000   -0.000000
   -5   -5    2    2    2    0.000248   -0.000000
   -5   -5    3    1    1    0.000044    0.000000
   -5   -5    3    2    1   -0.000000    0.000000
   -5   -5    3    1    2   -0.000000    0.000000
   -5   -5    3    2    2    0.000096    0.000000
   -5   -5    4    1    1    0.000069   -0.000000
   -5   -5    4    2    1   -0.000000    0.000000
   -5   -5    4    1    2   -0.000000    0.000000
   -5   -5    4    2    2    0.000086    0.000000
   -5   -4   -4    1    1    0.000065    0.000000
   -5   -4   -4    2    1   -0.000016    0.000000
   -5   -4   -4    1    2   -0.000016    0.000000
   -5   -4   -4    2    2    0.000077    0.000000
   -5   -4   -3    1    1    0.000032    0.000000
   -5   -4   -3    2    1   -0.000002    0.000000
   -5   -4   -3    1    2   -0.000002    0.000000
   -5   -4   -3    2    2    0.000040    0.000000
   -5   -4   -2    1    1   -0.000015   -0.000000
   -5   -4   -2    2    1    0.000003   -0.000000
   -5   -4   -2    1    2    0.000003   -0.000000
   -5   -4   -2    2    2    0.000153   -0.000000
   -5   -4   -1    1    1   -0.000057    0.000000
   -5   -4   -1    2    1    0.000004   -0.000000
   -5   -4   -1    1    2    0.000004   -0.000000
   -5   -4   -1    2    2    0.000062   -0.000000
   -5   -4    0    1    1   -0.000052   -0.000000
   -5   -4    0    2    1   -0.000012    0.000000
   -5   -4    0    1    2   -0.000012    0.000000
   -5   -4    0    2    2   -0.000152   -0.000000
   -5   -4    1    1    1   -0.000057    0.000000
   -5   -4    1    2    1    0.000004    0.000000
   -5   -4    1    1    2    0.000004    0.000000
   -5   -4    1    2    2    0.000062    0.000000
   -5   -4    2    1    1   -0.000015   -0.000000
   -5   -4    2    2    1    0.000003   -0.000000
   -5   -4    2    1    2    0.000003   -0.000000
   -5   -4    2    2    2    0.000153    0.000000
   -5   -4    3    1    1    0.000032    0.000000
   -5   -4    3    2    1   -0.000002    0.000000
   -5   -4    3    1    2   -0.000002   -0.000000
   -5   -4    3    2    2    0.000040   -0.000000
   -5   -4    4    1    1    0.000065   -0.000000
   -5   -4    4    2    1   -0.000016    0.000000
   -5   -4    4    1    2   -0.000016    0.000000
   -5   -4    4    2    2    0.000077   -0.000000
   -5   -3   -4    1    1    0.000062    0.000000
   -5   -3   -4    2    1   -0.000024   -0.000000
   -5   -3   -4    1    2   -0.000024   -0.000000
   -5   -3   -4    2    2    0.000028   -0.000000
   -5   -3   -3    1    1    0.000043   -0.000000
   -5   -3   -3    2    1   -0.000035    0.000000
   -5   -3   -3    1    2   -0.000035    0.000000
   -5   -3   -3    2    2    0.000075   -0.000000
   -5   -3   -2    1    1   -0.000005   -0.000000
   -5   -3   -2    2    1   -0.000003    0.000000
   -5   -3   -2    1    2   -0.000003    0.000000
   -5   -3   -2    2    2    0.000010    0.000000
   -5   -3   -1    1    1   -0.000080    0.000000
   -5   -3   -1    2    1    0.000004   -0.000000
   -5   -3   -1    1    2    0.000004   -0.000000
   -5   -3   -1    2    2    0.000073    0.000000
   -5   -3    0    1    1   -0.000097    0.000000
   -5   -3    0    2    1    0.000034   -0.000000
   -5   -3    0    1    2    0.000034   -0.000000
   -5   -3    0    2    2   -0.000051   -0.000000
   -5   -3    1    1    1   -0.000080   -0.000000
   -5   -3    1    2    1    0.000004    0.000000
   -5   -3    1    1    2    0.000004    0.000000
   -5   -3    1    2    2    0.000073   -0.000000
   -5   -3    2    1    1   -0.000005   -0.000000
   -5   -3    2    2    1   -0.000003    0.000000
   -5   -3    2    1    2   -0.000003    0.000000
   -5   -3    2    2    2    0.000010    0.000000
   -5   -3    3    1    1    0.000043   -0.000000
   -5   -3    3    2    1   -0.000035    0.000000
   -5   -3    3    1    2   -0.000035    0.000000
   -5   -3    3    2    2    0.000075   -0.000000
   -5   -3    4    1    1    0.000062    0.000000
   -5   -3    4    2    1   -0.000024   -0.000000
   -5   -3    4    1    2   -0.000024   -0.000000
   -5   -3    4    2    2    0.000028   -0.000000
   -5   -2   -4    1    1    0.000119    0.000000
   -5   -2   -4    2    1   -0.000083    0.000000
   -5   -2   -4    1    2   -0.000083    0.000000
   -5   -2   -4    2    2    0.000008   -0.000000
   -5   -2   -3    1    1    0.000052   -0.000000
   -5   -2   -3    2    1   -0.000047    0.000000
   -5   -2   -3    1    2   -0.000047    0.000000
   -5   -2   -3    2    2    0.000033   -0.000000
   -5   -2   -2    1    1   -0.000107   -0.000000
   -5   -2   -2    2    1    0.000036   -0.000000
   -5   -2   -2    1    2    0.000036   -0.000000
   -5   -2   -2    2    2   -0.000196    0.000000
   -5   -2   -1    1    1   -0.000153    0.000000
   -5   -2   -1    2    1    0.000083    0.000000
   -5   -2   -1    1    2    0.000083    0.000000
   -5   -2   -1    2    2   -0.000071    0.000000
   -5   -2    0    1    1    0.000007    0.000000
   -5   -2    0    2    1   -0.000072    0.000000
   -5   -2    0    1    2   -0.000072    0.000000
   -5   -2    0    2    2    0.000169   -0.000000
   -5   -2    1    1    1   -0.000153    0.000000
   -5   -2    1    2    1    0.000083    0.000000
   -5   -2    1    1    2    0.000083    0.000000
   -5   -2    1    2    2   -0.000071   -0.000000
   -5   -2    2    1    1   -0.000107    0.000000
   -5   -2    2    2    1    0.000036    0.000000
   -5   -2    2    1    2    0.000036    0.000000
   -5   -2    2    2    2   -0.000196    0.000000
   -5   -2    3    1    1    0.000052   -0.000000
   -5   -2    3    2    1   -0.000047   -0.000000
   -5   -2    3    1    2   -0.000047   -0.000000
   -5   -2    3    2    2    0.000033    0.000000
   -5   -2    4    1    1    0.000119    0.000000
   -5   -2    4    2    1   -0.000083    0.000000
   -5   -2    4    1    2   -0.000083   -0.000000
   -5   -2    4    2    2    0.000008    0.000000
   -5   -1   -4    1    1    0.000049    0.000000
   -5   -1   -4    2    1   -0.000036   -0.000000
   -5   -1   -4    1    2   -0.000036   -0.000000
   -5   -1   -4    2    2   -0.000050    0.000000
   -5   -1   -3    1    1    0.000027   -0.000000
   -5   -1   -3    2    1   -0.000034   -0.000000
   -5   -1   -3    1    2   -0.000034   -0.000000
   -5   -1   -3    2    2   -0.000095    0.000000
   -5   -1   -2    1    1   -0.000013    0.000000
   -5   -1   -2    2    1   -0.000016   -0.000000
   -5   -1   -2    1    2   -0.000016   -0.000000
   -5   -1   -2    2    2   -0.000194    0.000000
   -5   -1   -1    1    1   -0.000062   -0.000000
   -5   -1   -1    2    1    0.000202    0.000000
   -5   -1   -1    1    2    0.000202    0.000000
   -5   -1   -1    2    2   -0.000325    0.000000
   -5   -1    0    1    1   -0.000315    0.000000
   -5   -1    0    2    1    0.000929    0.000000
   -5   -1    0    1    2    0.000929    0.000000
   -5   -1    0    2    2   -0.001564    0.000000
   -5   -1    1    1    1   -0.000062   -0.000000
   -5   -1    1    2    1    0.000202   -0.000000
   -5   -1    1    1    2    0.000202   -0.000000
   -5   -1    1    2    2   -0.000325    0.000000
   -5   -1    2    1    1   -0.000013   -0.000000
   -5   -1    2    2    1   -0.000016    0.000000
   -5   -1    2    1    2   -0.000016    0.000000
   -5   -1    2    2    2   -0.000194   -0.000000
   -5   -1    3    1    1    0.000027   -0.000000
   -5   -1    3    2    1   -0.000034   -0.000000
   -5   -1    3    1    2   -0.000034   -0.000000
   -5   -1    3    2    2   -0.000095   -0.000000
   -5   -1    4    1    1    0.000049    0.000000
   -5   -1    4    2    1   -0.000036   -0.000000
   -5   -1    4    1    2   -0.000036   -0.000000
   -5   -1    4    2    2   -0.000050   -0.000000
   -5    0   -4    1    1   -0.000245   -0.000000
   -5    0   -4    2    1    0.000128   -0.000000
   -5    0   -4    1    2    0.000128   -0.000000
   -5    0   -4    2    2   -0.000173    0.000000
   -5    0   -3    1    1   -0.000113    0.000000
   -5    0   -3    2    1    0.000094   -0.000000
   -5    0   -3    1    2    0.000094   -0.000000
   -5    0   -3    2    2   -0.000175   -0.000000
   -5    0   -2    1    1    0.000071    0.000000
   -5    0   -2    2    1   -0.000172   -0.000000
   -5    0   -2    1    2   -0.000172   -0.000000
   -5    0   -2    2    2    0.000143   -0.000000
   -5    0   -1    1    1   -0.000376    0.000000
   -5    0   -1    2    1    0.000944    0.000000
   -5    0   -1    1    2    0.000944    0.000000
   -5    0   -1    2    2   -0.001450   -0.000000
   -5    0    0    1    1   -0.002040    0.000000
   -5    0    0    2    1    0.004255    0.000000
   -5    0    0    1    2    0.004255    0.000000
   -5    0    0    2    2   -0.007179   -0.000000
   -5    0    1    1    1   -0.000376   -0.000000
   -5    0    1    2    1    0.000944   -0.000000
   -5    0    1    1    2    0.000944   -0.000000
   -5    0    1    2    2   -0.001450    0.000000
   -5    0    2    1    1    0.000071   -0.000000
   -5    0    2    2    1   -0.000172    0.000000
   -5    0    2    1    2   -0.000172    0.000000
   -5    0    2    2    2    0.000143    0.000000
   -5    0    3    1    1   -0.000113   -0.000000
   -5    0    3    2    1    0.000094    0.000000
   -5    0    3    1    2    0.000094    0.000000
   -5    0    3    2    2   -0.000175    0.000000
   -5    0    4    1    1   -0.000245    0.000000
   -5    0    4    2    1    0.000128    0.000000
   -5    0    4    1    2    0.000128    0.000000
   -5    0    4    2    2   -0.000173   -0.000000
   -5    1   -4    1    1    0.000049   -0.000000
   -5    1   -4    2    1   -0.000036    0.000000
   -5    1   -4    1    2   -0.000036    0.000000
   -5    1   -4    2    2   -0.000050    0.000000
   -5    1   -3    1    1    0.000027   -0.000000
   -5    1   -3    2    1   -0.000034    0.000000
   -5    1   -3    1    2   -0.000034    0.000000
   -5    1   -3    2    2   -0.000095    0.000000
   -5    1   -2    1    1   -0.000013    0.000000
   -5    1   -2    2    1   -0.000016   -0.000000
   -5    1   -2    1    2   -0.000016   -0.000000
   -5    1   -2    2    2   -0.000194    0.000000
   -5    1   -1    1    1   -0.000062    0.000000
   -5    1   -1    2    1    0.000202    0.000000
   -5    1   -1    1    2    0.000202    0.000000
   -5    1   -1    2    2   -0.000325   -0.000000
   -5    1    0    1    1   -0.000315   -0.000000
   -5    1    0    2    1    0.000929   -0.000000
   -5    1    0    1    2    0.000929   -0.000000
   -5    1    0    2    2   -0.001564   -0.000000
   -5    1    1    1    1   -0.000062    0.000000
   -5    1    1    2    1    0.000202   -0.000000
   -5    1    1    1    2    0.000202   -0.000000
   -5    1    1    2    2   -0.000325   -0.000000
   -5    1    2    1    1   -0.000013   -0.000000
   -5    1    2    2    1   -0.000016    0.000000
   -5    1    2    1    2   -0.000016    0.000000
   -5    1    2    2    2   -0.000194   -0.000000
   -5    1    3    1    1    0.000027    0.000000
   -5    1    3    2    1   -0.000034    0.000000
   -5    1    3    1    2   -0.000034    0.000000
   -5    1    3    2    2   -0.000095   -0.000000
   -5    1    4    1    1    0.000049   -0.000000
   -5    1    4    2    1   -0.000036    0.000000
   -5    1    4    1    2   -0.000036    0.000000
   -5    1    4    2    2   -0.000050   -0.000000
   -5    2   -4    1    1    0.000119   -0.000000
   -5    2   -4    2    1   -0.000083    0.000000
   -5    2   -4    1    2   -0.000083   -0.000000
   -5    2   -4    2    2    0.000008   -0.000000
   -5    2   -3    1    1    0.000052    0.000000
   -5    2   -3    2    1   -0.000047    0.000000
   -5    2   -3    1    2   -0.000047    0.000000
   -5    2   -3    2    2    0.000033   -0.000000
   -5    2   -2    1    1   -0.000107   -0.000000
   -5    2   -2    2    1    0.000036   -0.000000
   -5    2   -2    1    2    0.000036   -0.000000
   -5    2   -2    2    2   -0.000196   -0.000000
   -5    2   -1    1    1   -0.000153   -0.000000
   -5    2   -1    2    1    0.000083   -0.000000
   -5    2   -1    1    2    0.000083   -0.000000
   -5    2   -1    2    2   -0.000071    0.000000
   -5    2    0    1    1    0.000007   -0.000000
   -5    2    0    2    1   -0.000072   -0.000000
   -5    2    0    1    2   -0.000072   -0.000000
   -5    2    0    2    2    0.000169    0.000000
   -5    2    1    1    1   -0.000153   -0.000000
   -5    2    1    2    1    0.000083   -0.000000
   -5    2    1    1    2    0.000083   -0.000000
   -5    2    1    2    2   -0.000071   -0.000000
   -5    2    2    1    1   -0.000107   -0.000000
   -5    2    2    2    1    0.000036    0.000000
   -5    2    2    1    2    0.000036    0.000000
   -5    2    2    2    2   -0.000196   -0.000000
   -5    2    3    1    1    0.000052    0.000000
   -5    2    3    2    1   -0.000047   -0.000000
   -5    2    3    1    2   -0.000047   -0.000000
   -5    2    3    2    2    0.000033    0.000000
   -5    2    4    1    1    0.000119   -0.000000
   -5    2    4    2    1   -0.000083   -0.000000
   -5    2    4    1    2   -0.000083   -0.000000
   -5    2    4    2    2    0.000008    0.000000
   -5    3   -4    1    1    0.000062   -0.000000
   -5    3   -4    2    1   -0.000024    0.000000
   -5    3   -4    1    2   -0.000024    0.000000
   -5    3   -4    2    2    0.000028    0.000000
   -5    3   -3    1    1    0.000043    0.000000
   -5    3   -3    2    1   -0.000035   -0.000000
   -5    3   -3    1    2   -0.000035   -0.000000
   -5    3   -3    2    2    0.000075    0.000000
   -5    3   -2    1    1   -0.000005    0.000000
   -5    3   -2    2    1   -0.000003   -0.000000
   -5    3   -2    1    2   -0.000003   -0.000000
   -5    3   -2    2    2    0.000010   -0.000000
   -5    3   -1    1    1   -0.000080    0.000000
   -5    3   -1    2    1    0.000004   -0.000000
   -5    3   -1    1    2    0.000004   -0.000000
   -5    3   -1    2    2    0.000073    0.000000
   -5    3    0    1    1   -0.000097   -0.000000
   -5    3    0    2    1    0.000034    0.000000
   -5    3    0    1    2    0.000034    0.000000
   -5    3    0    2    2   -0.000051    0.000000
   -5    3    1    1    1   -0.000080   -0.000000
   -5    3    1    2    1    0.000004    0.000000
   -5    3    1    1    2    0.000004    0.000000
   -5    3    1    2    2    0.000073   -0.000000
   -5    3    2    1    1   -0.000005    0.000000
   -5    3    2    2    1   -0.000003   -0.000000
   -5    3    2    1    2   -0.000003   -0.000000
   -5    3    2    2    2    0.000010   -0.000000
   -5    3    3    1    1    0.000043    0.000000
   -5    3    3    2    1   -0.000035   -0.000000
   -5    3    3    1    2   -0.000035   -0.000000
   -5    3    3    2    2    0.000075    0.000000
   -5    3    4    1    1    0.000062   -0.000000
   -5    3    4    2    1   -0.000024    0.000000
   -5    3    4    1    2   -0.000024    0.000000
   -5    3    4    2    2    0.000028    0.000000
   -5    4   -4    1    1    0.000065    0.000000
   -5    4   -4    2    1   -0.000016   -0.000000
   -5    4   -4    1    2   -0.000016   -0.000000
   -5    4   -4    2    2    0.000077    0.000000
   -5    4   -3    1    1    0.000032   -0.000000
   -5    4   -3    2    1   -0.000002    0.000000
   -5    4   -3    1    2   -0.000002   -0.000000
   -5    4   -3    2    2    0.000040    0.000000
   -5    4   -2    1    1   -0.000015    0.000000
   -5    4   -2    2    1    0.000003    0.000000
   -5    4   -2    1    2    0.000003    0.000000
   -5    4   -2    2    2    0.000153   -0.000000
   -5    4   -1    1    1   -0.000057   -0.000000
   -5    4   -1    2    1    0.000004   -0.000000
   -5    4   -1    1    2    0.000004   -0.000000
   -5    4   -1    2    2    0.000062   -0.000000
   -5    4    0    1    1   -0.000052    0.000000
   -5    4    0    2    1   -0.000012   -0.000000
   -5    4    0    1    2   -0.000012   -0.000000
   -5    4    0    2    2   -0.000152    0.000000
   -5    4    1    1    1   -0.000057   -0.000000
   -5    4    1    2    1    0.000004    0.000000
   -5    4    1    1    2    0.000004    0.000000
   -5    4    1    2    2    0.000062    0.000000
   -5    4    2    1    1   -0.000015    0.000000
   -5    4    2    2    1    0.000003    0.000000
   -5    4    2    1    2    0.000003    0.000000
   -5    4    2    2    2    0.000153    0.000000
   -5    4    3    1    1    0.000032   -0.000000
   -5    4    3    2    1   -0.000002   -0.000000
   -5    4    3    1    2   -0.000002   -0.000000
   -5    4    3    2    2    0.000040   -0.000000
   -5    4    4    1    1    0.000065   -0.000000
   -5    4    4    2    1   -0.000016   -0.000000
   -5    4    4    1    2   -0.000016   -0.000000
   -5    4    4    2    2    0.000077   -0.000000
   -5    5   -4    1    1    0.000069    0.000000
   -5    5   -4    2    1   -0.000000   -0.000000
   -5    5   -4    1    2   -0.000000   -0.000000
   -5    5   -4    2    2    0.000086   -0.000000
   -5    5   -3    1    1    0.000044   -0.000000
   -5    5   -3    2    1   -0.000000   -0.000000
   -5    5   -3    1    2   -0.000000   -0.000000
   -5    5   -3    2    2    0.000096   -0.000000
   -5    5   -2    1    1    0.000018    0.000000
   -5    5   -2    2    1   -0.000000    0.000000
   -5    5   -2    1    2   -0.000000    0.000000
   -5    5   -2    2    2    0.000248    0.000000
   -5    5   -1    1    1   -0.000060   -0.000000
   -5    5   -1    2    1   -0.000000   -0.000000
   -5    5   -1    1    2   -0.000000   -0.000000
   -5    5   -1    2    2    0.000055    0.000000
   -5    5    0    1    1   -0.000066   -0.000000
   -5    5    0    2    1    0.000000   -0.000000
   -5    5    0    1    2    0.000000    0.000000
   -5    5    0    2    2   -0.000275   -0.000000
   -5    5    1    1    1   -0.000060    0.000000
   -5    5    1    2    1   -0.000000    0.000000
   -5    5    1    1    2   -0.000000    0.000000
   -5    5    1    2    2    0.000055   -0.000000
   -5    5    2    1    1    0.000018   -0.000000
   -5    5    2    2    1   -0.000000   -0.000000
   -5    5    2    1    2   -0.000000   -0.000000
   -5    5    2    2    2    0.000248   -0.000000
   -5    5    3    1    1    0.000044    0.000000
   -5    5    3    2    1   -0.000000    0.000000
   -5    5    3    1    2   -0.000000    0.000000
   -5    5    3    2    2    0.000096    0.000000
   -5    5    4    1    1    0.000069   -0.000000
   -5    5    4    2    1   -0.000000    0.000000
   -5    5    4    1    2   -0.000000    0.000000
   -5    5    4    2    2    0.000086    0.000000
   -4   -5   -4    1    1    0.000065    0.000000
   -4   -5   -4    2    1    0.000016   -0.000000
   -4   -5   -4    1    2    0.000016   -0.000000
   -4   -5   -4    2    2    0.000077    0.000000
   -4   -5   -3    1    1    0.000032    0.000000
   -4   -5   -3    2    1    0.000002   -0.000000
   -4   -5   -3    1    2    0.000002   -0.000000
   -4   -5   -3    2    2    0.000040    0.000000
   -4   -5   -2    1    1   -0.000015   -0.000000
   -4   -5   -2    2    1   -0.000003   -0.000000
   -4   -5   -2    1    2   -0.000003   -0.000000
   -4   -5   -2    2    2    0.000153    0.000000
   -4   -5   -1    1    1   -0.000057   -0.000000
   -4   -5   -1    2    1   -0.000004   -0.000000
   -4   -5   -1    1    2   -0.000004   -0.000000
   -4   -5   -1    2    2    0.000062   -0.000000
   -4   -5    0    1    1   -0.000052   -0.000000
   -4   -5    0    2    1    0.000012    0.000000
   -4   -5    0    1    2    0.000012    0.000000
   -4   -5    0    2    2   -0.000152   -0.000000
   -4   -5    1    1    1   -0.000057    0.000000
   -4   -5    1    2    1   -0.000004   -0.000000
   -4   -5    1    1    2   -0.000004   -0.000000
   -4   -5    1    2    2    0.000062   -0.000000
   -4   -5    2    1    1   -0.000015   -0.000000
   -4   -5    2    2    1   -0.000003   -0.000000
   -4   -5    2    1    2   -0.000003   -0.000000
   -4   -5    2    2    2    0.000153    0.000000
   -4   -5    3    1    1    0.000032    0.000000
   -4   -5    3    2    1    0.000002    0.000000
   -4   -5    3    1    2    0.000002    0.000000
   -4   -5    3    2    2    0.000040   -0.000000
   -4   -5    4    1    1    0.000065    0.000000
   -4   -5    4    2    1    0.000016    0.000000
   -4   -5    4    1    2    0.000016    0.000000
   -4   -5    4    2    2    0.000077   -0.000000
   -4   -4   -4    1    1    0.000074   -0.000000
   -4   -4   -4    2    1   -0.000000    0.000000
   -4   -4   -4    1    2   -0.000000    0.000000
   -4   -4   -4    2    2    0.000057   -0.000000
   -4   -4   -3    1    1    0.000013    0.000000
   -4   -4   -3    2    1   -0.000000   -0.000000
   -4   -4   -3    1    2    0.000000   -0.000000
   -4   -4   -3    2    2    0.000077   -0.000000
   -4   -4   -2    1    1   -0.000016   -0.000000
   -4   -4   -2    2    1    0.000000   -0.000000
   -4   -4   -2    1    2    0.000000   -0.000000
   -4   -4   -2    2    2    0.000093   -0.000000
   -4   -4   -1    1    1   -0.000050    0.000000
   -4   -4   -1    2    1   -0.000000    0.000000
   -4   -4   -1    1    2   -0.000000    0.000000
   -4   -4   -1    2    2    0.000092    0.000000
   -4   -4    0    1    1   -0.000019    0.000000
   -4   -4    0    2    1   -0.000000   -0.000000
   -4   -4    0    1    2   -0.000000   -0.000000
   -4   -4    0    2    2   -0.000040   -0.000000
   -4   -4    1    1    1   -0.000050    0.000000
   -4   -4    1    2    1   -0.000000   -0.000000
   -4   -4    1    1    2   -0.000000   -0.000000
   -4   -4    1    2    2    0.000092   -0.000000
   -4   -4    2    1    1   -0.000016   -0.000000
   -4   -4    2    2    1   -0.000000    0.000000
   -4   -4    2    1    2   -0.000000   -0.000000
   -4   -4    2    2    2    0.000093    0.000000
   -4   -4    3    1    1    0.000013   -0.000000
   -4   -4    3    2    1    0.000000   -0.000000
   -4   -4    3    1    2    0.000000   -0.000000
   -4   -4    3    2    2    0.000077    0.000000
   -4   -4    4    1    1    0.000074    0.000000
   -4   -4    4    2    1   -0.000000    0.000000
   -4   -4    4    1    2   -0.000000    0.000000
   -4   -4    4    2    2    0.000057    0.000000
   -4   -3   -4    1    1    0.000048   -0.000000
   -4   -3   -4    2    1   -0.000029   -0.000000
   -4   -3   -4    1    2   -0.000029   -0.000000
   -4   -3   -4    2    2    0.000014    0.000000
   -4   -3   -3    1    1    0.000016   -0.000000
   -4   -3   -3    2    1   -0.000036   -0.000000
   -4   -3   -3    1    2   -0.000036   -0.000000
   -4   -3   -3    2    2    0.000058    0.000000
   -4   -3   -2    1    1   -0.000013   -0.000000
   -4   -3   -2    2    1   -0.000010   -0.000000
   -4   -3   -2    1    2   -0.000010   -0.000000
   -4   -3   -2    2    2   -0.000012   -0.000000
   -4   -3   -1    1    1   -0.000062    0.000000
   -4   -3   -1    2    1    0.000005    0.000000
   -4   -3   -1    1    2    0.000005    0.000000
   -4   -3   -1    2    2    0.000056    0.000000
   -4   -3    0    1    1   -0.000049    0.000000
   -4   -3    0    2    1    0.000085    0.000000
   -4   -3    0    1    2    0.000085    0.000000
   -4   -3    0    2    2   -0.000181   -0.000000
   -4   -3    1    1    1   -0.000062    0.000000
   -4   -3    1    2    1    0.000005   -0.000000
   -4   -3    1    1    2    0.000005   -0.000000
   -4   -3    1    2    2    0.000056   -0.000000
   -4   -3    2    1    1   -0.000013   -0.000000
   -4   -3    2    2    1   -0.000010    0.000000
   -4   -3    2    1    2   -0.000010    0.000000
   -4   -3    2    2    2   -0.000012    0.000000
   -4   -3    3    1    1    0.000016    0.000000
   -4   -3    3    2    1   -0.000036    0.000000
   -4   -3    3    1    2   -0.000036   -0.000000
   -4   -3    3    2    2    0.000058    0.000000
   -4   -3    4    1    1    0.000048   -0.000000
   -4   -3    4    2    1   -0.000029   -0.000000
   -4   -3    4    1    2   -0.000029   -0.000000
   -4   -3    4    2    2    0.000014    0.000000
   -4   -2   -4    1    1    0.000058    0.000000
   -4   -2   -4    2    1   -0.000063   -0.000000
   -4   -2   -4    1    2   -0.000063   -0.000000
   -4   -2   -4    2    2   -0.000002    0.000000
   -4   -2   -3    1    1    0.000019    0.000000
   -4   -2   -3    2    1   -0.000036   -0.000000
   -4   -2   -3    1    2   -0.000036   -0.000000
   -4   -2   -3    2    2    0.000008   -0.000000
   -4   -2   -2    1    1   -0.000086    0.000000
   -4   -2   -2    2    1    0.000026    0.000000
   -4   -2   -2    1    2    0.000026    0.000000
   -4   -2   -2    2    2   -0.000119   -0.000000
   -4   -2   -1    1    1   -0.000067   -0.000000
   -4   -2   -1    2    1    0.000034    0.000000
   -4   -2   -1    1    2    0.000034    0.000000
   -4   -2   -1    2    2   -0.000005    0.000000
   -4   -2    0    1    1    0.000047   -0.000000
   -4   -2    0    2    1   -0.000087   -0.000000
   -4   -2    0    1    2   -0.000087   -0.000000
   -4   -2    0    2    2    0.000202    0.000000
   -4   -2    1    1    1   -0.000067   -0.000000
   -4   -2    1    2    1    0.000034    0.000000
   -4   -2    1    1    2    0.000034    0.000000
   -4   -2    1    2    2   -0.000005   -0.000000
   -4   -2    2    1    1   -0.000086   -0.000000
   -4   -2    2    2    1    0.000026    0.000000
   -4   -2    2    1    2    0.000026    0.000000
   -4   -2    2    2    2   -0.000119   -0.000000
   -4   -2    3    1    1    0.000019    0.000000
   -4   -2    3    2    1   -0.000036    0.000000
   -4   -2    3    1    2   -0.000036    0.000000
   -4   -2    3    2    2    0.000008   -0.000000
   -4   -2    4    1    1    0.000058    0.000000
   -4   -2    4    2    1   -0.000063    0.000000
   -4   -2    4    1    2   -0.000063    0.000000
   -4   -2    4    2    2   -0.000002   -0.000000
   -4   -1   -4    1    1    0.000033   -0.000000
   -4   -1   -4    2    1   -0.000046   -0.000000
   -4   -1   -4    1    2   -0.000046   -0.000000
   -4   -1   -4    2    2   -0.000042    0.000000
   -4   -1   -3    1    1    0.000028   -0.000000
   -4   -1   -3    2    1   -0.000042   -0.000000
   -4   -1   -3    1    2   -0.000042   -0.000000
   -4   -1   -3    2    2   -0.000079   -0.000000
   -4   -1   -2    1    1    0.000036   -0.000000
   -4   -1   -2    2    1   -0.000027    0.000000
   -4   -1   -2    1    2   -0.000027    0.000000
   -4   -1   -2    2    2   -0.000082   -0.000000
   -4   -1   -1    1    1   -0.000095   -0.000000
   -4   -1   -1    2    1    0.000194   -0.000000
   -4   -1   -1    1    2    0.000194   -0.000000
   -4   -1   -1    2    2   -0.000350    0.000000
   -4   -1    0    1    1   -0.000441   -0.000000
   -4   -1    0    2    1    0.001002   -0.000000
   -4   -1    0    1    2    0.001002   -0.000000
   -4   -1    0    2    2   -0.001941    0.000000
   -4   -1    1    1    1   -0.000095   -0.000000
   -4   -1    1    2    1    0.000194   -0.000000
   -4   -1    1    1    2    0.000194   -0.000000
   -4   -1    1    2    2   -0.000350    0.000000
   -4   -1    2    1    1    0.000036    0.000000
   -4   -1    2    2    1   -0.000027    0.000000
   -4   -1    2    1    2   -0.000027    0.000000
   -4   -1    2    2    2   -0.000082   -0.000000
   -4   -1    3    1    1    0.000028    0.000000
   -4   -1    3    2    1   -0.000042   -0.000000
   -4   -1    3    1    2   -0.000042   -0.000000
   -4   -1    3    2    2   -0.000079    0.000000
   -4   -1    4    1    1    0.000033   -0.000000
   -4   -1    4    2    1   -0.000046   -0.000000
   -4   -1    4    1    2   -0.000046   -0.000000
   -4   -1    4    2    2   -0.000042    0.000000
   -4    0   -4    1    1   -0.000112    0.000000
   -4    0   -4    2    1    0.000090    0.000000
   -4    0   -4    1    2    0.000090    0.000000
   -4    0   -4    2    2   -0.000113    0.000000
   -4    0   -3    1    1   -0.000101   -0.000000
   -4    0   -3    2    1    0.000141    0.000000
   -4    0   -3    1    2    0.000141    0.000000
   -4    0   -3    2    2   -0.000216   -0.000000
   -4    0   -2    1    1    0.000118    0.000000
   -4    0   -2    2    1   -0.000148    0.000000
   -4    0   -2    1    2   -0.000148   -0.000000
   -4    0   -2    2    2    0.000244    0.000000
   -4    0   -1    1    1   -0.000620    0.000000
   -4    0   -1    2    1    0.001093   -0.000000
   -4    0   -1    1    2    0.001093   -0.000000
   -4    0   -1    2    2   -0.001704    0.000000
   -4    0    0    1    1   -0.003016   -0.000000
   -4    0    0    2    1    0.005490    0.000000
   -4    0    0    1    2    0.005490    0.000000
   -4    0    0    2    2   -0.009599    0.000000
   -4    0    1    1    1   -0.000620    0.000000
   -4    0    1    2    1    0.001093    0.000000
   -4    0    1    1    2    0.001093    0.000000
   -4    0    1    2    2   -0.001704   -0.000000
   -4    0    2    1    1    0.000118    0.000000
   -4    0    2    2    1   -0.000148    0.000000
   -4    0    2    1    2   -0.000148    0.000000
   -4    0    2    2    2    0.000244   -0.000000
   -4    0    3    1    1   -0.000101    0.000000
   -4    0    3    2    1    0.000141    0.000000
   -4    0    3    1    2    0.000141    0.000000
   -4    0    3    2    2   -0.000216   -0.000000
   -4    0    4    1    1   -0.000112   -0.000000
   -4    0    4    2    1    0.000090    0.000000
   -4    0    4    1    2    0.000090    0.000000
   -4    0    4    2    2   -0.000113    0.000000
   -4    1   -4    1    1    0.000033   -0.000000
   -4    1   -4    2    1   -0.000046   -0.000000
   -4    1   -4    1    2   -0.000046   -0.000000
   -4    1   -4    2    2   -0.000042   -0.000000
   -4    1   -3    1    1    0.000028    0.000000
   -4    1   -3    2    1   -0.000042    0.000000
   -4    1   -3    1    2   -0.000042    0.000000
   -4    1   -3    2    2   -0.000079   -0.000000
   -4    1   -2    1    1    0.000036    0.000000
   -4    1   -2    2    1   -0.000027   -0.000000
   -4    1   -2    1    2   -0.000027   -0.000000
   -4    1   -2    2    2   -0.000082   -0.000000
   -4    1   -1    1    1   -0.000095    0.000000
   -4    1   -1    2    1    0.000194    0.000000
   -4    1   -1    1    2    0.000194    0.000000
   -4    1   -1    2    2   -0.000350    0.000000
   -4    1    0    1    1   -0.000441   -0.000000
   -4    1    0    2    1    0.001002    0.000000
   -4    1    0    1    2    0.001002    0.000000
   -4    1    0    2    2   -0.001941    0.000000
   -4    1    1    1    1   -0.000095    0.000000
   -4    1    1    2    1    0.000194   -0.000000
   -4    1    1    1    2    0.000194   -0.000000
   -4    1    1    2    2   -0.000350   -0.000000
   -4    1    2    1    1    0.000036   -0.000000
   -4    1    2    2    1   -0.000027    0.000000
   -4    1    2    1    2   -0.000027    0.000000
   -4    1    2    2    2   -0.000082    0.000000
   -4    1    3    1    1    0.000028   -0.000000
   -4    1    3    2    1   -0.000042   -0.000000
   -4    1    3    1    2   -0.000042   -0.000000
   -4    1    3    2    2   -0.000079    0.000000
   -4    1    4    1    1    0.000033   -0.000000
   -4    1    4    2    1   -0.000046   -0.000000
   -4    1    4    1    2   -0.000046   -0.000000
   -4    1    4    2    2   -0.000042   -0.000000
   -4    2   -4    1    1    0.000058   -0.000000
   -4    2   -4    2    1   -0.000063    0.000000
   -4    2   -4    1    2   -0.000063    0.000000
   -4    2   -4    2    2   -0.000002   -0.000000
   -4    2   -3    1    1    0.000019   -0.000000
   -4    2   -3    2    1   -0.000036    0.000000
   -4    2   -3    1    2   -0.000036    0.000000
   -4    2   -3    2    2    0.000008    0.000000
   -4    2   -2    1    1   -0.000086   -0.000000
   -4    2   -2    2    1    0.000026   -0.000000
   -4    2   -2    1    2    0.000026   -0.000000
   -4    2   -2    2    2   -0.000119    0.000000
   -4    2   -1    1    1   -0.000067    0.000000
   -4    2   -1    2    1    0.000034    0.000000
   -4    2   -1    1    2    0.000034    0.000000
   -4    2   -1    2    2   -0.000005    0.000000
   -4    2    0    1    1    0.000047   -0.000000
   -4    2    0    2    1   -0.000087   -0.000000
   -4    2    0    1    2   -0.000087   -0.000000
   -4    2    0    2    2    0.000202   -0.000000
   -4    2    1    1    1   -0.000067    0.000000
   -4    2    1    2    1    0.000034    0.000000
   -4    2    1    1    2    0.000034    0.000000
   -4    2    1    2    2   -0.000005   -0.000000
   -4    2    2    1    1   -0.000086   -0.000000
   -4    2    2    2    1    0.000026    0.000000
   -4    2    2    1    2    0.000026    0.000000
   -4    2    2    2    2   -0.000119   -0.000000
   -4    2    3    1    1    0.000019    0.000000
   -4    2    3    2    1   -0.000036   -0.000000
   -4    2    3    1    2   -0.000036   -0.000000
   -4    2    3    2    2    0.000008    0.000000
   -4    2    4    1    1    0.000058    0.000000
   -4    2    4    2    1   -0.000063   -0.000000
   -4    2    4    1    2   -0.000063   -0.000000
   -4    2    4    2    2   -0.000002    0.000000
   -4    3   -4    1    1    0.000048   -0.000000
   -4    3   -4    2    1   -0.000029   -0.000000
   -4    3   -4    1    2   -0.000029   -0.000000
   -4    3   -4    2    2    0.000014   -0.000000
   -4    3   -3    1    1    0.000016    0.000000
   -4    3   -3    2    1   -0.000036    0.000000
   -4    3   -3    1    2   -0.000036    0.000000
   -4    3   -3    2    2    0.000058   -0.000000
   -4    3   -2    1    1   -0.000013    0.000000
   -4    3   -2    2    1   -0.000010    0.000000
   -4    3   -2    1    2   -0.000010    0.000000
   -4    3   -2    2    2   -0.000012   -0.000000
   -4    3   -1    1    1   -0.000062   -0.000000
   -4    3   -1    2    1    0.000005   -0.000000
   -4    3   -1    1    2    0.000005   -0.000000
   -4    3   -1    2    2    0.000056    0.000000
   -4    3    0    1    1   -0.000049    0.000000
   -4    3    0    2    1    0.000085    0.000000
   -4    3    0    1    2    0.000085    0.000000
   -4    3    0    2    2   -0.000181    0.000000
   -4    3    1    1    1   -0.000062   -0.000000
   -4    3    1    2    1    0.000005   -0.000000
   -4    3    1    1    2    0.000005   -0.000000
   -4    3    1    2    2    0.000056    0.000000
   -4    3    2    1    1   -0.000013    0.000000
   -4    3    2    2    1   -0.000010    0.000000
   -4    3    2    1    2   -0.000010    0.000000
   -4    3    2    2    2   -0.000012    0.000000
   -4    3    3    1    1    0.000016   -0.000000
   -4    3    3    2    1   -0.000036    0.000000
   -4    3    3    1    2   -0.000036    0.000000
   -4    3    3    2    2    0.000058    0.000000
   -4    3    4    1    1    0.000048   -0.000000
   -4    3    4    2    1   -0.000029   -0.000000
   -4    3    4    1    2   -0.000029   -0.000000
   -4    3    4    2    2    0.000014   -0.000000
   -4    4   -4    1    1    0.000074    0.000000
   -4    4   -4    2    1   -0.000000   -0.000000
   -4    4   -4    1    2    0.000000   -0.000000
   -4    4   -4    2    2    0.000057    0.000000
   -4    4   -3    1    1    0.000013   -0.000000
   -4    4   -3    2    1    0.000000    0.000000
   -4    4   -3    1    2    0.000000    0.000000
   -4    4   -3    2    2    0.000077   -0.000000
   -4    4   -2    1    1   -0.000016    0.000000
   -4    4   -2    2    1    0.000000    0.000000
   -4    4   -2    1    2   -0.000000    0.000000
   -4    4   -2    2    2    0.000093   -0.000000
   -4    4   -1    1    1   -0.000050    0.000000
   -4    4   -1    2    1   -0.000000    0.000000
   -4    4   -1    1    2   -0.000000    0.000000
   -4    4   -1    2    2    0.000092    0.000000
   -4    4    0    1    1   -0.000019    0.000000
   -4    4    0    2    1    0.000000   -0.000000
   -4    4    0    1    2   -0.000000   -0.000000
   -4    4    0    2    2   -0.000040   -0.000000
   -4    4    1    1    1   -0.000050    0.000000
   -4    4    1    2    1    0.000000   -0.000000
   -4    4    1    1    2    0.000000   -0.000000
   -4    4    1    2    2    0.000092   -0.000000
   -4    4    2    1    1   -0.000016   -0.000000
   -4    4    2    2    1    0.000000    0.000000
   -4    4    2    1    2   -0.000000    0.000000
   -4    4    2    2    2    0.000093   -0.000000
   -4    4    3    1    1    0.000013   -0.000000
   -4    4    3    2    1   -0.000000    0.000000
   -4    4    3    1    2   -0.000000    0.000000
   -4    4    3    2    2    0.000077   -0.000000
   -4    4    4    1    1    0.000074   -0.000000
   -4    4    4    2    1   -0.000000    0.000000
   -4    4    4    1    2    0.000000    0.000000
   -4    4    4    2    2    0.000057    0.000000
   -4    5   -4    1    1    0.000065    0.000000
   -4    5   -4    2    1    0.000016   -0.000000
   -4    5   -4    1    2    0.000016   -0.000000
   -4    5   -4    2    2    0.000077    0.000000
   -4    5   -3    1    1    0.000032    0.000000
   -4    5   -3    2    1    0.000002   -0.000000
   -4    5   -3    1    2    0.000002   -0.000000
   -4    5   -3    2    2    0.000040    0.000000
   -4    5   -2    1    1   -0.000015   -0.000000
   -4    5   -2    2    1   -0.000003   -0.000000
   -4    5   -2    1    2   -0.000003   -0.000000
   -4    5   -2    2    2    0.000153    0.000000
   -4    5   -1    1    1   -0.000057   -0.000000
   -4    5   -1    2    1   -0.000004   -0.000000
   -4    5   -1    1    2   -0.000004   -0.000000
   -4    5   -1    2    2    0.000062   -0.000000
   -4    5    0    1    1   -0.000052   -0.000000
   -4    5    0    2    1    0.000012    0.000000
   -4    5    0    1    2    0.000012    0.000000
   -4    5    0    2    2   -0.000152   -0.000000
   -4    5    1    1    1   -0.000057    0.000000
   -4    5    1    2    1   -0.000004   -0.000000
   -4    5    1    1    2   -0.000004   -0.000000
   -4    5    1    2    2    0.000062   -0.000000
   -4    5    2    1    1   -0.000015   -0.000000
   -4    5    2    2    1   -0.000003   -0.000000
   -4    5    2    1    2   -0.000003   -0.000000
   -4    5    2    2    2    0.000153    0.000000
   -4    5    3    1    1    0.000032    0.000000
   -4    5    3    2    1    0.000002    0.000000
   -4    5    3    1    2    0.000002    0.000000
   -4    5    3    2    2    0.000040   -0.000000
   -4    5    4    1    1    0.000065    0.000000
   -4    5    4    2    1    0.000016    0.000000
   -4    5    4    1    2    0.000016    0.000000
   -4    5    4    2    2    0.000077   -0.000000
   -3   -5   -4    1    1    0.000062   -0.000000
   -3   -5   -4    2    1    0.000024    0.000000
   -3   -5   -4    1    2    0.000024    0.000000
   -3   -5   -4    2    2    0.000028    0.000000
   -3   -5   -3    1    1    0.000043   -0.000000
   -3   -5   -3    2    1    0.000035   -0.000000
   -3   -5   -3    1    2    0.000035   -0.000000
   -3   -5   -3    2    2    0.000075   -0.000000
   -3   -5   -2    1    1   -0.000005   -0.000000
   -3   -5   -2    2    1    0.000003   -0.000000
   -3   -5   -2    1    2    0.000003   -0.000000
   -3   -5   -2    2    2    0.000010   -0.000000
   -3   -5   -1    1    1   -0.000080    0.000000
   -3   -5   -1    2    1   -0.000004   -0.000000
   -3   -5   -1    1    2   -0.000004   -0.000000
   -3   -5   -1    2    2    0.000073    0.000000
   -3   -5    0    1    1   -0.000097   -0.000000
   -3   -5    0    2    1   -0.000034   -0.000000
   -3   -5    0    1    2   -0.000034   -0.000000
   -3   -5    0    2    2   -0.000051    0.000000
   -3   -5    1    1    1   -0.000080    0.000000
   -3   -5    1    2    1   -0.000004   -0.000000
   -3   -5    1    1    2   -0.000004   -0.000000
   -3   -5    1    2    2    0.000073    0.000000
   -3   -5    2    1    1   -0.000005    0.000000
   -3   -5    2    2    1    0.000003   -0.000000
   -3   -5    2    1    2    0.000003   -0.000000
   -3   -5    2    2    2    0.000010    0.000000
   -3   -5    3    1    1    0.000043   -0.000000
   -3   -5    3    2    1    0.000035   -0.000000
   -3   -5    3    1    2    0.000035   -0.000000
   -3   -5    3    2    2    0.000075   -0.000000
   -3   -5    4    1    1    0.000062   -0.000000
   -3   -5    4    2    1    0.000024    0.000000
   -3   -5    4    1    2    0.000024    0.000000
   -3   -5    4    2    2    0.000028    0.000000
   -3   -4   -4    1    1    0.000048    0.000000
   -3   -4   -4    2    1    0.000029   -0.000000
   -3   -4   -4    1    2    0.000029   -0.000000
   -3   -4   -4    2    2    0.000014   -0.000000
   -3   -4   -3    1    1    0.000016    0.000000
   -3   -4   -3    2    1    0.000036    0.000000
   -3   -4   -3    1    2    0.000036    0.000000
   -3   -4   -3    2    2    0.000058    0.000000
   -3   -4   -2    1    1   -0.000013    0.000000
   -3   -4   -2    2    1    0.000010   -0.000000
   -3   -4   -2    1    2    0.000010   -0.000000
   -3   -4   -2    2    2   -0.000012    0.000000
   -3   -4   -1    1    1   -0.000062   -0.000000
   -3   -4   -1    2    1   -0.000005   -0.000000
   -3   -4   -1    1    2   -0.000005   -0.000000
   -3   -4   -1    2    2    0.000056    0.000000
   -3   -4    0    1    1   -0.000049   -0.000000
   -3   -4    0    2    1   -0.000085   -0.000000
   -3   -4    0    1    2   -0.000085   -0.000000
   -3   -4    0    2    2   -0.000181   -0.000000
   -3   -4    1    1    1   -0.000062   -0.000000
   -3   -4    1    2    1   -0.000005   -0.000000
   -3   -4    1    1    2   -0.000005   -0.000000
   -3   -4    1    2    2    0.000056   -0.000000
   -3   -4    2    1    1   -0.000013    0.000000
   -3   -4    2    2    1    0.000010   -0.000000
   -3   -4    2    1    2    0.000010   -0.000000
   -3   -4    2    2    2   -0.000012    0.000000
   -3   -4    3    1    1    0.000016    0.000000
   -3   -4    3    2    1    0.000036    0.000000
   -3   -4    3    1    2    0.000036    0.000000
   -3   -4    3    2    2    0.000058    0.000000
   -3   -4    4    1    1    0.000048    0.000000
   -3   -4    4    2    1    0.000029    0.000000
   -3   -4    4    1    2    0.000029    0.000000
   -3   -4    4    2    2    0.000014   -0.000000
   -3   -3   -4    1    1    0.000087    0.000000
   -3   -3   -4    2    1    0.000000    0.000000
   -3   -3   -4    1    2    0.000000    0.000000
   -3   -3   -4    2    2    0.000006   -0.000000
   -3   -3   -3    1    1    0.000027    0.000000
   -3   -3   -3    2    1   -0.000000    0.000000
   -3   -3   -3    1    2    0.000000    0.000000
   -3   -3   -3    2    2    0.000033   -0.000000
   -3   -3   -2    1    1   -0.000051   -0.000000
   -3   -3   -2    2    1    0.000000   -0.000000
   -3   -3   -2    1    2    0.000000   -0.000000
   -3   -3   -2    2    2    0.000015   -0.000000
   -3   -3   -1    1    1   -0.000120    0.000000
   -3   -3   -1    2    1    0.000000   -0.000000
   -3   -3   -1    1    2    0.000000   -0.000000
   -3   -3   -1    2    2    0.000110    0.000000
   -3   -3    0    1    1   -0.000140   -0.000000
   -3   -3    0    2    1    0.000000   -0.000000
   -3   -3    0    1    2    0.000000   -0.000000
   -3   -3    0    2    2   -0.000015    0.000000
   -3   -3    1    1    1   -0.000120   -0.000000
   -3   -3    1    2    1    0.000000    0.000000
   -3   -3    1    1    2    0.000000    0.000000
   -3   -3    1    2    2    0.000110    0.000000
   -3   -3    2    1    1   -0.000051   -0.000000
   -3   -3    2    2    1    0.000000   -0.000000
   -3   -3    2    1    2    0.000000   -0.000000
   -3   -3    2    2    2    0.000015    0.000000
   -3   -3    3    1    1    0.000027   -0.000000
   -3   -3    3    2    1   -0.000000   -0.000000
   -3   -3    3    1    2   -0.000000   -0.000000
   -3   -3    3    2    2    0.000033    0.000000
   -3   -3    4    1    1    0.000087    0.000000
   -3   -3    4    2    1    0.000000   -0.000000
   -3   -3    4    1    2    0.000000   -0.000000
   -3   -3    4    2    2    0.000006    0.000000
   -3   -2   -4    1    1    0.000009   -0.000000
   -3   -2   -4    2    1   -0.000005    0.000000
   -3   -2   -4    1    2   -0.000005    0.000000
   -3   -2   -4    2    2   -0.000029    0.000000
   -3   -2   -3    1    1    0.000000   -0.000000
   -3   -2   -3    2    1   -0.000029    0.000000
   -3   -2   -3    1    2   -0.000029    0.000000
   -3   -2   -3    2    2   -0.000044   -0.000000
   -3   -2   -2    1    1   -0.000045   -0.000000
   -3   -2   -2    2    1   -0.000018    0.000000
   -3   -2   -2    1    2   -0.000018    0.000000
   -3   -2   -2    2    2   -0.000025   -0.000000
   -3   -2   -1    1    1   -0.000049    0.000000
   -3   -2   -1    2    1   -0.000100   -0.000000
   -3   -2   -1    1    2   -0.000100   -0.000000
   -3   -2   -1    2    2    0.000156   -0.000000
   -3   -2    0    1    1    0.000208    0.000000
   -3   -2    0    2    1   -0.000112    0.000000
   -3   -2    0    1    2   -0.000112    0.000000
   -3   -2    0    2    2   -0.000335    0.000000
   -3   -2    1    1    1   -0.000049    0.000000
   -3   -2    1    2    1   -0.000100    0.000000
   -3   -2    1    1    2   -0.000100    0.000000
   -3   -2    1    2    2    0.000156   -0.000000
   -3   -2    2    1    1   -0.000045    0.000000
   -3   -2    2    2    1   -0.000018    0.000000
   -3   -2    2    1    2   -0.000018    0.000000
   -3   -2    2    2    2   -0.000025   -0.000000
   -3   -2    3    1    1    0.000000    0.000000
   -3   -2    3    2    1   -0.000029    0.000000
   -3   -2    3    1    2   -0.000029    0.000000
   -3   -2    3    2    2   -0.000044    0.000000
   -3   -2    4    1    1    0.000009   -0.000000
   -3   -2    4    2    1   -0.000005   -0.000000
   -3   -2    4    1    2   -0.000005   -0.000000
   -3   -2    4    2    2   -0.000029    0.000000
   -3   -1   -4    1    1   -0.000020    0.000000
   -3   -1   -4    2    1   -0.000063   -0.000000
   -3   -1   -4    1    2   -0.000063    0.000000
   -3   -1   -4    2    2   -0.000028    0.000000
   -3   -1   -3    1    1    0.000031   -0.000000
   -3   -1   -3    2    1   -0.000100   -0.000000
   -3   -1   -3    1    2   -0.000100   -0.000000
   -3   -1   -3    2    2   -0.000114    0.000000
   -3   -1   -2    1    1    0.000051    0.000000
   -3   -1   -2    2    1   -0.000145    0.000000
   -3   -1   -2    1    2   -0.000145   -0.000000
   -3   -1   -2    2    2    0.000122    0.000000
   -3   -1   -1    1    1    0.000012   -0.000000
   -3   -1   -1    2    1    0.000104   -0.000000
   -3   -1   -1    1    2    0.000104    0.000000
   -3   -1   -1    2    2   -0.000177    0.000000
   -3   -1    0    1    1   -0.000711    0.000000
   -3   -1    0    2    1    0.001665    0.000000
   -3   -1    0    1    2    0.001665    0.000000
   -3   -1    0    2    2   -0.002453    0.000000
   -3   -1    1    1    1    0.000012   -0.000000
   -3   -1    1    2    1    0.000104   -0.000000
   -3   -1    1    1    2    0.000104   -0.000000
   -3   -1    1    2    2   -0.000177   -0.000000
   -3   -1    2    1    1    0.000051   -0.000000
   -3   -1    2    2    1   -0.000145   -0.000000
   -3   -1    2    1    2   -0.000145   -0.000000
   -3   -1    2    2    2    0.000122    0.000000
   -3   -1    3    1    1    0.000031   -0.000000
   -3   -1    3    2    1   -0.000100   -0.000000
   -3   -1    3    1    2   -0.000100   -0.000000
   -3   -1    3    2    2   -0.000114    0.000000
   -3   -1    4    1    1   -0.000020    0.000000
   -3   -1    4    2    1   -0.000063   -0.000000
   -3   -1    4    1    2   -0.000063   -0.000000
   -3   -1    4    2    2   -0.000028    0.000000
   -3    0   -4    1    1   -0.000206    0.000000
   -3    0   -4    2    1    0.000033    0.000000
   -3    0   -4    1    2    0.000033    0.000000
   -3    0   -4    2    2   -0.000038   -0.000000
   -3    0   -3    1    1   -0.000076    0.000000
   -3    0   -3    2    1   -0.000044   -0.000000
   -3    0   -3    1    2   -0.000044   -0.000000
   -3    0   -3    2    2   -0.000144   -0.000000
   -3    0   -2    1    1   -0.000291    0.000000
   -3    0   -2    2    1    0.000176   -0.000000
   -3    0   -2    1    2    0.000176   -0.000000
   -3    0   -2    2    2    0.000226   -0.000000
   -3    0   -1    1    1   -0.000595    0.000000
   -3    0   -1    2    1    0.001578   -0.000000
   -3    0   -1    1    2    0.001578   -0.000000
   -3    0   -1    2    2   -0.002628   -0.000000
   -3    0    0    1    1   -0.005714    0.000000
   -3    0    0    2    1    0.011606    0.000000
   -3    0    0    1    2    0.011606    0.000000
   -3    0    0    2    2   -0.019623   -0.000000
   -3    0    1    1    1   -0.000595   -0.000000
   -3    0    1    2    1    0.001578   -0.000000
   -3    0    1    1    2    0.001578   -0.000000
   -3    0    1    2    2   -0.002628   -0.000000
   -3    0    2    1    1   -0.000291   -0.000000
   -3    0    2    2    1    0.000176   -0.000000
   -3    0    2    1    2    0.000176   -0.000000
   -3    0    2    2    2    0.000226    0.000000
   -3    0    3    1    1   -0.000076    0.000000
   -3    0    3    2    1   -0.000044    0.000000
   -3    0    3    1    2   -0.000044    0.000000
   -3    0    3    2    2   -0.000144    0.000000
   -3    0    4    1    1   -0.000206    0.000000
   -3    0    4    2    1    0.000033   -0.000000
   -3    0    4    1    2    0.000033   -0.000000
   -3    0    4    2    2   -0.000038   -0.000000
   -3    1   -4    1    1   -0.000020   -0.000000
   -3    1   -4    2    1   -0.000063   -0.000000
   -3    1   -4    1    2   -0.000063    0.000000
   -3    1   -4    2    2   -0.000028   -0.000000
   -3    1   -3    1    1    0.000031    0.000000
   -3    1   -3    2    1   -0.000100   -0.000000
   -3    1   -3    1    2   -0.000100   -0.000000
   -3    1   -3    2    2   -0.000114    0.000000
   -3    1   -2    1    1    0.000051   -0.000000
   -3    1   -2    2    1   -0.000145   -0.000000
   -3    1   -2    1    2   -0.000145   -0.000000
   -3    1   -2    2    2    0.000122   -0.000000
   -3    1   -1    1    1    0.000012   -0.000000
   -3    1   -1    2    1    0.000104   -0.000000
   -3    1   -1    1    2    0.000104    0.000000
   -3    1   -1    2    2   -0.000177   -0.000000
   -3    1    0    1    1   -0.000711   -0.000000
   -3    1    0    2    1    0.001665    0.000000
   -3    1    0    1    2    0.001665    0.000000
   -3    1    0    2    2   -0.002453   -0.000000
   -3    1    1    1    1    0.000012   -0.000000
   -3    1    1    2    1    0.000104   -0.000000
   -3    1    1    1    2    0.000104   -0.000000
   -3    1    1    2    2   -0.000177   -0.000000
   -3    1    2    1    1    0.000051    0.000000
   -3    1    2    2    1   -0.000145   -0.000000
   -3    1    2    1    2   -0.000145   -0.000000
   -3    1    2    2    2    0.000122    0.000000
   -3    1    3    1    1    0.000031    0.000000
   -3    1    3    2    1   -0.000100    0.000000
   -3    1    3    1    2   -0.000100    0.000000
   -3    1    3    2    2   -0.000114   -0.000000
   -3    1    4    1    1   -0.000020    0.000000
   -3    1    4    2    1   -0.000063   -0.000000
   -3    1    4    1    2   -0.000063   -0.000000
   -3    1    4    2    2   -0.000028   -0.000000
   -3    2   -4    1    1    0.000009   -0.000000
   -3    2   -4    2    1   -0.000005    0.000000
   -3    2   -4    1    2   -0.000005    0.000000
   -3    2   -4    2    2   -0.000029    0.000000
   -3    2   -3    1    1    0.000000    0.000000
   -3    2   -3    2    1   -0.000029    0.000000
   -3    2   -3    1    2   -0.000029    0.000000
   -3    2   -3    2    2   -0.000044    0.000000
   -3    2   -2    1    1   -0.000045    0.000000
   -3    2   -2    2    1   -0.000018    0.000000
   -3    2   -2    1    2   -0.000018    0.000000
   -3    2   -2    2    2   -0.000025    0.000000
   -3    2   -1    1    1   -0.000049    0.000000
   -3    2   -1    2    1   -0.000100   -0.000000
   -3    2   -1    1    2   -0.000100   -0.000000
   -3    2   -1    2    2    0.000156    0.000000
   -3    2    0    1    1    0.000208    0.000000
   -3    2    0    2    1   -0.000112    0.000000
   -3    2    0    1    2   -0.000112    0.000000
   -3    2    0    2    2   -0.000335    0.000000
   -3    2    1    1    1   -0.000049   -0.000000
   -3    2    1    2    1   -0.000100    0.000000
   -3    2    1    1    2   -0.000100   -0.000000
   -3    2    1    2    2    0.000156   -0.000000
   -3    2    2    1    1   -0.000045   -0.000000
   -3    2    2    2    1   -0.000018    0.000000
   -3    2    2    1    2   -0.000018    0.000000
   -3    2    2    2    2   -0.000025   -0.000000
   -3    2    3    1    1    0.000000   -0.000000
   -3    2    3    2    1   -0.000029    0.000000
   -3    2    3    1    2   -0.000029    0.000000
   -3    2    3    2    2   -0.000044    0.000000
   -3    2    4    1    1    0.000009   -0.000000
   -3    2    4    2    1   -0.000005    0.000000
   -3    2    4    1    2   -0.000005    0.000000
   -3    2    4    2    2   -0.000029   -0.000000
   -3    3   -4    1    1    0.000087    0.000000
   -3    3   -4    2    1    0.000000   -0.000000
   -3    3   -4    1    2    0.000000   -0.000000
   -3    3   -4    2    2    0.000006    0.000000
   -3    3   -3    1    1    0.000027    0.000000
   -3    3   -3    2    1    0.000000   -0.000000
   -3    3   -3    1    2   -0.000000   -0.000000
   -3    3   -3    2    2    0.000033   -0.000000
   -3    3   -2    1    1   -0.000051   -0.000000
   -3    3   -2    2    1    0.000000    0.000000
   -3    3   -2    1    2    0.000000    0.000000
   -3    3   -2    2    2    0.000015   -0.000000
   -3    3   -1    1    1   -0.000120   -0.000000
   -3    3   -1    2    1    0.000000   -0.000000
   -3    3   -1    1    2    0.000000   -0.000000
   -3    3   -1    2    2    0.000110   -0.000000
   -3    3    0    1    1   -0.000140    0.000000
   -3    3    0    2    1   -0.000000   -0.000000
   -3    3    0    1    2    0.000000   -0.000000
   -3    3    0    2    2   -0.000015   -0.000000
   -3    3    1    1    1   -0.000120    0.000000
   -3    3    1    2    1   -0.000000    0.000000
   -3    3    1    1    2   -0.000000    0.000000
   -3    3    1    2    2    0.000110   -0.000000
   -3    3    2    1    1   -0.000051    0.000000
   -3    3    2    2    1   -0.000000    0.000000
   -3    3    2    1    2   -0.000000    0.000000
   -3    3    2    2    2    0.000015   -0.000000
   -3    3    3    1    1    0.000027   -0.000000
   -3    3    3    2    1    0.000000    0.000000
   -3    3    3    1    2   -0.000000    0.000000
   -3    3    3    2    2    0.000033   -0.000000
   -3    3    4    1    1    0.000087   -0.000000
   -3    3    4    2    1   -0.000000    0.000000
   -3    3    4    1    2   -0.000000    0.000000
   -3    3    4    2    2    0.000006   -0.000000
   -3    4   -4    1    1    0.000048   -0.000000
   -3    4   -4    2    1    0.000029    0.000000
   -3    4   -4    1    2    0.000029    0.000000
   -3    4   -4    2    2    0.000014    0.000000
   -3    4   -3    1    1    0.000016    0.000000
   -3    4   -3    2    1    0.000036    0.000000
   -3    4   -3    1    2    0.000036    0.000000
   -3    4   -3    2    2    0.000058    0.000000
   -3    4   -2    1    1   -0.000013    0.000000
   -3    4   -2    2    1    0.000010    0.000000
   -3    4   -2    1    2    0.000010    0.000000
   -3    4   -2    2    2   -0.000012    0.000000
   -3    4   -1    1    1   -0.000062    0.000000
   -3    4   -1    2    1   -0.000005   -0.000000
   -3    4   -1    1    2   -0.000005   -0.000000
   -3    4   -1    2    2    0.000056    0.000000
   -3    4    0    1    1   -0.000049   -0.000000
   -3    4    0    2    1   -0.000085    0.000000
   -3    4    0    1    2   -0.000085    0.000000
   -3    4    0    2    2   -0.000181   -0.000000
   -3    4    1    1    1   -0.000062   -0.000000
   -3    4    1    2    1   -0.000005    0.000000
   -3    4    1    1    2   -0.000005    0.000000
   -3    4    1    2    2    0.000056   -0.000000
   -3    4    2    1    1   -0.000013   -0.000000
   -3    4    2    2    1    0.000010   -0.000000
   -3    4    2    1    2    0.000010   -0.000000
   -3    4    2    2    2   -0.000012    0.000000
   -3    4    3    1    1    0.000016    0.000000
   -3    4    3    2    1    0.000036    0.000000
   -3    4    3    1    2    0.000036    0.000000
   -3    4    3    2    2    0.000058   -0.000000
   -3    4    4    1    1    0.000048   -0.000000
   -3    4    4    2    1    0.000029    0.000000
   -3    4    4    1    2    0.000029    0.000000
   -3    4    4    2    2    0.000014   -0.000000
   -3    5   -4    1    1    0.000062   -0.000000
   -3    5   -4    2    1    0.000024    0.000000
   -3    5   -4    1    2    0.000024    0.000000
   -3    5   -4    2    2    0.000028    0.000000
   -3    5   -3    1    1    0.000043    0.000000
   -3    5   -3    2    1    0.000035   -0.000000
   -3    5   -3    1    2    0.000035   -0.000000
   -3    5   -3    2    2    0.000075   -0.000000
   -3    5   -2    1    1   -0.000005   -0.000000
   -3    5   -2    2    1    0.000003   -0.000000
   -3    5   -2    1    2    0.000003   -0.000000
   -3    5   -2    2    2    0.000010   -0.000000
   -3    5   -1    1    1   -0.000080    0.000000
   -3    5   -1    2    1   -0.000004   -0.000000
   -3    5   -1    1    2   -0.000004   -0.000000
   -3    5   -1    2    2    0.000073    0.000000
   -3    5    0    1    1   -0.000097   -0.000000
   -3    5    0    2    1   -0.000034   -0.000000
   -3    5    0    1    2   -0.000034   -0.000000
   -3    5    0    2    2   -0.000051    0.000000
   -3    5    1    1    1   -0.000080    0.000000
   -3    5    1    2    1   -0.000004   -0.000000
   -3    5    1    1    2   -0.000004   -0.000000
   -3    5    1    2    2    0.000073    0.000000
   -3    5    2    1    1   -0.000005    0.000000
   -3    5    2    2    1    0.000003   -0.000000
   -3    5    2    1    2    0.000003   -0.000000
   -3    5    2    2    2    0.000010    0.000000
   -3    5    3    1    1    0.000043   -0.000000
   -3    5    3    2    1    0.000035   -0.000000
   -3    5    3    1    2    0.000035   -0.000000
   -3    5    3    2    2    0.000075   -0.000000
   -3    5    4    1    1    0.000062   -0.000000
   -3    5    4    2    1    0.000024    0.000000
   -3    5    4    1    2    0.000024    0.000000
   -3    5    4    2    2    0.000028    0.000000
   -2   -5   -4    1    1    0.000119    0.000000
   -2   -5   -4    2    1    0.000083    0.000000
   -2   -5   -4    1    2    0.000083    0.000000
   -2   -5   -4    2    2    0.000008   -0.000000
   -2   -5   -3    1    1    0.000052    0.000000
   -2   -5   -3    2    1    0.000047   -0.000000
   -2   -5   -3    1    2    0.000047   -0.000000
   -2   -5   -3    2    2    0.000033    0.000000
   -2   -5   -2    1    1   -0.000107    0.000000
   -2   -5   -2    2    1   -0.000036   -0.000000
   -2   -5   -2    1    2   -0.000036   -0.000000
   -2   -5   -2    2    2   -0.000196    0.000000
   -2   -5   -1    1    1   -0.000153   -0.000000
   -2   -5   -1    2    1   -0.000083   -0.000000
   -2   -5   -1    1    2   -0.000083   -0.000000
   -2   -5   -1    2    2   -0.000071    0.000000
   -2   -5    0    1    1    0.000007   -0.000000
   -2   -5    0    2    1    0.000072   -0.000000
   -2   -5    0    1    2    0.000072   -0.000000
   -2   -5    0    2    2    0.000169   -0.000000
   -2   -5    1    1    1   -0.000153   -0.000000
   -2   -5    1    2    1   -0.000083    0.000000
   -2   -5    1    1    2   -0.000083    0.000000
   -2   -5    1    2    2   -0.000071   -0.000000
   -2   -5    2    1    1   -0.000107    0.000000
   -2   -5    2    2    1   -0.000036   -0.000000
   -2   -5    2    1    2   -0.000036   -0.000000
   -2   -5    2    2    2   -0.000196   -0.000000
   -2   -5    3    1    1    0.000052   -0.000000
   -2   -5    3    2    1    0.000047    0.000000
   -2   -5    3    1    2    0.000047   -0.000000
   -2   -5    3    2    2    0.000033    0.000000
   -2   -5    4    1    1    0.000119   -0.000000
   -2   -5    4    2    1    0.000083   -0.000000
   -2   -5    4    1    2    0.000083   -0.000000
   -2   -5    4    2    2    0.000008   -0.000000
   -2   -4   -4    1    1    0.000058   -0.000000
   -2   -4   -4    2    1    0.000063    0.000000
   -2   -4   -4    1    2    0.000063    0.000000
   -2   -4   -4    2    2   -0.000002   -0.000000
   -2   -4   -3    1    1    0.000019    0.000000
   -2   -4   -3    2    1    0.000036   -0.000000
   -2   -4   -3    1    2    0.000036   -0.000000
   -2   -4   -3    2    2    0.000008   -0.000000
   -2   -4   -2    1    1   -0.000086   -0.000000
   -2   -4   -2    2    1   -0.000026   -0.000000
   -2   -4   -2    1    2   -0.000026   -0.000000
   -2   -4   -2    2    2   -0.000119   -0.000000
   -2   -4   -1    1    1   -0.000067   -0.000000
   -2   -4   -1    2    1   -0.000034    0.000000
   -2   -4   -1    1    2   -0.000034    0.000000
   -2   -4   -1    2    2   -0.000005    0.000000
   -2   -4    0    1    1    0.000047   -0.000000
   -2   -4    0    2    1    0.000087    0.000000
   -2   -4    0    1    2    0.000087    0.000000
   -2   -4    0    2    2    0.000202    0.000000
   -2   -4    1    1    1   -0.000067    0.000000
   -2   -4    1    2    1   -0.000034    0.000000
   -2   -4    1    1    2   -0.000034    0.000000
   -2   -4    1    2    2   -0.000005   -0.000000
   -2   -4    2    1    1   -0.000086   -0.000000
   -2   -4    2    2    1   -0.000026   -0.000000
   -2   -4    2    1    2   -0.000026   -0.000000
   -2   -4    2    2    2   -0.000119    0.000000
   -2   -4    3    1    1    0.000019   -0.000000
   -2   -4    3    2    1    0.000036   -0.000000
   -2   -4    3    1    2    0.000036   -0.000000
   -2   -4    3    2    2    0.000008    0.000000
   -2   -4    4    1    1    0.000058   -0.000000
   -2   -4    4    2    1    0.000063    0.000000
   -2   -4    4    1    2    0.000063    0.000000
   -2   -4    4    2    2   -0.000002    0.000000
   -2   -3   -4    1    1    0.000009    0.000000
   -2   -3   -4    2    1    0.000005    0.000000
   -2   -3   -4    1    2    0.000005    0.000000
   -2   -3   -4    2    2   -0.000029    0.000000
   -2   -3   -3    1    1    0.000000    0.000000
   -2   -3   -3    2    1    0.000029    0.000000
   -2   -3   -3    1    2    0.000029    0.000000
   -2   -3   -3    2    2   -0.000044   -0.000000
   -2   -3   -2    1    1   -0.000045    0.000000
   -2   -3   -2    2    1    0.000018   -0.000000
   -2   -3   -2    1    2    0.000018   -0.000000
   -2   -3   -2    2    2   -0.000025    0.000000
   -2   -3   -1    1    1   -0.000049    0.000000
   -2   -3   -1    2    1    0.000100   -0.000000
   -2   -3   -1    1    2    0.000100    0.000000
   -2   -3   -1    2    2    0.000156    0.000000
   -2   -3    0    1    1    0.000208    0.000000
   -2   -3    0    2    1    0.000112    0.000000
   -2   -3    0    1    2    0.000112    0.000000
   -2   -3    0    2    2   -0.000335   -0.000000
   -2   -3    1    1    1   -0.000049   -0.000000
   -2   -3    1    2    1    0.000100    0.000000
   -2   -3    1    1    2    0.000100    0.000000
   -2   -3    1    2    2    0.000156   -0.000000
   -2   -3    2    1    1   -0.000045    0.000000
   -2   -3    2    2    1    0.000018   -0.000000
   -2   -3    2    1    2    0.000018   -0.000000
   -2   -3    2    2    2   -0.000025   -0.000000
   -2   -3    3    1    1    0.000000   -0.000000
   -2   -3    3    2    1    0.000029   -0.000000
   -2   -3    3    1    2    0.000029   -0.000000
   -2   -3    3    2    2   -0.000044   -0.000000
   -2   -3    4    1    1    0.000009    0.000000
   -2   -3    4    2    1    0.000005    0.000000
   -2   -3    4    1    2    0.000005    0.000000
   -2   -3    4    2    2   -0.000029   -0.000000
   -2   -2   -4    1    1   -0.000188    0.000000
   -2   -2   -4    2    1   -0.000000   -0.000000
   -2   -2   -4    1    2   -0.000000    0.000000
   -2   -2   -4    2    2   -0.000066   -0.000000
   -2   -2   -3    1    1   -0.000060   -0.000000
   -2   -2   -3    2    1   -0.000000   -0.000000
   -2   -2   -3    1    2   -0.000000    0.000000
   -2   -2   -3    2    2   -0.000108   -0.000000
   -2   -2   -2    1    1    0.000165    0.000000
   -2   -2   -2    2    1    0.000000    0.000000
   -2   -2   -2    1    2   -0.000000   -0.000000
   -2   -2   -2    2    2    0.000174    0.000000
   -2   -2   -1    1    1    0.000152   -0.000000
   -2   -2   -1    2    1    0.000000   -0.000000
   -2   -2   -1    1    2    0.000000    0.000000
   -2   -2   -1    2    2    0.000328    0.000000
   -2   -2    0    1    1   -0.000276    0.000000
   -2   -2    0    2    1   -0.000000    0.000000
   -2   -2    0    1    2    0.000000    0.000000
   -2   -2    0    2    2    0.003563   -0.000000
   -2   -2    1    1    1    0.000152    0.000000
   -2   -2    1    2    1   -0.000000    0.000000
   -2   -2    1    1    2   -0.000000   -0.000000
   -2   -2    1    2    2    0.000328   -0.000000
   -2   -2    2    1    1    0.000165    0.000000
   -2   -2    2    2    1    0.000000   -0.000000
   -2   -2    2    1    2   -0.000000   -0.000000
   -2   -2    2    2    2    0.000174    0.000000
   -2   -2    3    1    1   -0.000060   -0.000000
   -2   -2    3    2    1    0.000000    0.000000
   -2   -2    3    1    2    0.000000    0.000000
   -2   -2    3    2    2   -0.000108    0.000000
   -2   -2    4    1    1   -0.000188    0.000000
   -2   -2    4    2    1    0.000000    0.000000
   -2   -2    4    1    2    0.000000    0.000000
   -2   -2    4    2    2   -0.000066   -0.000000
   -2   -1   -4    1    1   -0.000157    0.000000
   -2   -1   -4    2    1   -0.000068    0.000000
   -2   -1   -4    1    2   -0.000068    0.000000
   -2   -1   -4    2    2   -0.000022   -0.000000
   -2   -1   -3    1    1    0.000154   -0.000000
   -2   -1   -3    2    1   -0.000070   -0.000000
   -2   -1   -3    1    2   -0.000070   -0.000000
   -2   -1   -3    2    2   -0.000070    0.000000
   -2   -1   -2    1    1    0.000296    0.000000
   -2   -1   -2    2    1   -0.000080    0.000000
   -2   -1   -2    1    2   -0.000080   -0.000000
   -2   -1   -2    2    2    0.000188   -0.000000
   -2   -1   -1    1    1    0.000135   -0.000000
   -2   -1   -1    2    1   -0.000847   -0.000000
   -2   -1   -1    1    2   -0.000847   -0.000000
   -2   -1   -1    2    2    0.001054    0.000000
   -2   -1    0    1    1   -0.002173   -0.000000
   -2   -1    0    2    1    0.002721    0.000000
   -2   -1    0    1    2    0.002721    0.000000
   -2   -1    0    2    2   -0.004452    0.000000
   -2   -1    1    1    1    0.000135    0.000000
   -2   -1    1    2    1   -0.000847   -0.000000
   -2   -1    1    1    2   -0.000847   -0.000000
   -2   -1    1    2    2    0.001054   -0.000000
   -2   -1    2    1    1    0.000296   -0.000000
   -2   -1    2    2    1   -0.000080   -0.000000
   -2   -1    2    1    2   -0.000080   -0.000000
   -2   -1    2    2    2    0.000188    0.000000
   -2   -1    3    1    1    0.000154    0.000000
   -2   -1    3    2    1   -0.000070    0.000000
   -2   -1    3    1    2   -0.000070   -0.000000
   -2   -1    3    2    2   -0.000070   -0.000000
   -2   -1    4    1    1   -0.000157   -0.000000
   -2   -1    4    2    1   -0.000068    0.000000
   -2   -1    4    1    2   -0.000068    0.000000
   -2   -1    4    2    2   -0.000022   -0.000000
   -2    0   -4    1    1    0.000328   -0.000000
   -2    0   -4    2    1   -0.000020    0.000000
   -2    0   -4    1    2   -0.000020    0.000000
   -2    0   -4    2    2    0.000034   -0.000000
   -2    0   -3    1    1   -0.000072    0.000000
   -2    0   -3    2    1    0.000253   -0.000000
   -2    0   -3    1    2    0.000253    0.000000
   -2    0   -3    2    2   -0.000029    0.000000
   -2    0   -2    1    1    0.002582    0.000000
   -2    0   -2    2    1   -0.001538    0.000000
   -2    0   -2    1    2   -0.001538   -0.000000
   -2    0   -2    2    2    0.000712   -0.000000
   -2    0   -1    1    1   -0.001634   -0.000000
   -2    0   -1    2    1    0.002503    0.000000
   -2    0   -1    1    2    0.002503    0.000000
   -2    0   -1    2    2   -0.005003    0.000000
   -2    0    0    1    1   -0.022407   -0.000000
   -2    0    0    2    1    0.034532    0.000000
   -2    0    0    1    2    0.034532    0.000000
   -2    0    0    2    2   -0.063338    0.000000
   -2    0    1    1    1   -0.001634    0.000000
   -2    0    1    2    1    0.002503   -0.000000
   -2    0    1    1    2    0.002503   -0.000000
   -2    0    1    2    2   -0.005003    0.000000
   -2    0    2    1    1    0.002582   -0.000000
   -2    0    2    2    1   -0.001538   -0.000000
   -2    0    2    1    2   -0.001538    0.000000
   -2    0    2    2    2    0.000712   -0.000000
   -2    0    3    1    1   -0.000072    0.000000
   -2    0    3    2    1    0.000253    0.000000
   -2    0    3    1    2    0.000253    0.000000
   -2    0    3    2    2   -0.000029   -0.000000
   -2    0    4    1    1    0.000328   -0.000000
   -2    0    4    2    1   -0.000020   -0.000000
   -2    0    4    1    2   -0.000020   -0.000000
   -2    0    4    2    2    0.000034   -0.000000
   -2    1   -4    1    1   -0.000157   -0.000000
   -2    1   -4    2    1   -0.000068    0.000000
   -2    1   -4    1    2   -0.000068    0.000000
   -2    1   -4    2    2   -0.000022   -0.000000
   -2    1   -3    1    1    0.000154   -0.000000
   -2    1   -3    2    1   -0.000070   -0.000000
   -2    1   -3    1    2   -0.000070    0.000000
   -2    1   -3    2    2   -0.000070   -0.000000
   -2    1   -2    1    1    0.000296    0.000000
   -2    1   -2    2    1   -0.000080    0.000000
   -2    1   -2    1    2   -0.000080   -0.000000
   -2    1   -2    2    2    0.000188   -0.000000
   -2    1   -1    1    1    0.000135   -0.000000
   -2    1   -1    2    1   -0.000847    0.000000
   -2    1   -1    1    2   -0.000847    0.000000
   -2    1   -1    2    2    0.001054    0.000000
   -2    1    0    1    1   -0.002173   -0.000000
   -2    1    0    2    1    0.002721    0.000000
   -2    1    0    1    2    0.002721    0.000000
   -2    1    0    2    2   -0.004452   -0.000000
   -2    1    1    1    1    0.000135   -0.000000
   -2    1    1    2    1   -0.000847    0.000000
   -2    1    1    1    2   -0.000847    0.000000
   -2    1    1    2    2    0.001054    0.000000
   -2    1    2    1    1    0.000296    0.000000
   -2    1    2    2    1   -0.000080    0.000000
   -2    1    2    1    2   -0.000080    0.000000
   -2    1    2    2    2    0.000188    0.000000
   -2    1    3    1    1    0.000154    0.000000
   -2    1    3    2    1   -0.000070    0.000000
   -2    1    3    1    2   -0.000070    0.000000
   -2    1    3    2    2   -0.000070    0.000000
   -2    1    4    1    1   -0.000157    0.000000
   -2    1    4    2    1   -0.000068    0.000000
   -2    1    4    1    2   -0.000068    0.000000
   -2    1    4    2    2   -0.000022    0.000000
   -2    2   -4    1    1   -0.000188   -0.000000
   -2    2   -4    2    1    0.000000    0.000000
   -2    2   -4    1    2   -0.000000    0.000000
   -2    2   -4    2    2   -0.000066   -0.000000
   -2    2   -3    1    1   -0.000060    0.000000
   -2    2   -3    2    1    0.000000    0.000000
   -2    2   -3    1    2    0.000000    0.000000
   -2    2   -3    2    2   -0.000108   -0.000000
   -2    2   -2    1    1    0.000165    0.000000
   -2    2   -2    2    1    0.000000    0.000000
   -2    2   -2    1    2    0.000000    0.000000
   -2    2   -2    2    2    0.000174   -0.000000
   -2    2   -1    1    1    0.000152    0.000000
   -2    2   -1    2    1    0.000000   -0.000000
   -2    2   -1    1    2    0.000000   -0.000000
   -2    2   -1    2    2    0.000328    0.000000
   -2    2    0    1    1   -0.000276   -0.000000
   -2    2    0    2    1   -0.000000    0.000000
   -2    2    0    1    2    0.000000    0.000000
   -2    2    0    2    2    0.003563    0.000000
   -2    2    1    1    1    0.000152   -0.000000
   -2    2    1    2    1   -0.000000    0.000000
   -2    2    1    1    2   -0.000000    0.000000
   -2    2    1    2    2    0.000328   -0.000000
   -2    2    2    1    1    0.000165    0.000000
   -2    2    2    2    1   -0.000000   -0.000000
   -2    2    2    1    2   -0.000000    0.000000
   -2    2    2    2    2    0.000174   -0.000000
   -2    2    3    1    1   -0.000060   -0.000000
   -2    2    3    2    1   -0.000000   -0.000000
   -2    2    3    1    2   -0.000000   -0.000000
   -2    2    3    2    2   -0.000108    0.000000
   -2    2    4    1    1   -0.000188   -0.000000
   -2    2    4    2    1    0.000000    0.000000
   -2    2    4    1    2   -0.000000    0.000000
   -2    2    4    2    2   -0.000066   -0.000000
   -2    3   -4    1    1    0.000009   -0.000000
   -2    3   -4    2    1    0.000005   -0.000000
   -2    3   -4    1    2    0.000005   -0.000000
   -2    3   -4    2    2   -0.000029    0.000000
   -2    3   -3    1    1    0.000000    0.000000
   -2    3   -3    2    1    0.000029   -0.000000
   -2    3   -3    1    2    0.000029   -0.000000
   -2    3   -3    2    2   -0.000044   -0.000000
   -2    3   -2    1    1   -0.000045    0.000000
   -2    3   -2    2    1    0.000018    0.000000
   -2    3   -2    1    2    0.000018    0.000000
   -2    3   -2    2    2   -0.000025   -0.000000
[...]
    4    5    4    2    1    0.000016    0.000000
    4    5    4    1    2    0.000016    0.000000
    4    5    4    2    2    0.000077   -0.000000
    5   -5   -4    1    1    0.000069    0.000000
    5   -5   -4    2    1   -0.000000   -0.000000
    5   -5   -4    1    2   -0.000000   -0.000000
    5   -5   -4    2    2    0.000086   -0.000000
    5   -5   -3    1    1    0.000044   -0.000000
    5   -5   -3    2    1   -0.000000   -0.000000
    5   -5   -3    1    2   -0.000000   -0.000000
    5   -5   -3    2    2    0.000096   -0.000000
    5   -5   -2    1    1    0.000018    0.000000
    5   -5   -2    2    1   -0.000000    0.000000
    5   -5   -2    1    2   -0.000000    0.000000
    5   -5   -2    2    2    0.000248    0.000000
    5   -5   -1    1    1   -0.000060   -0.000000
    5   -5   -1    2    1   -0.000000   -0.000000
    5   -5   -1    1    2   -0.000000   -0.000000
    5   -5   -1    2    2    0.000055    0.000000
    5   -5    0    1    1   -0.000066   -0.000000
    5   -5    0    2    1    0.000000   -0.000000
    5   -5    0    1    2    0.000000    0.000000
    5   -5    0    2    2   -0.000275   -0.000000
    5   -5    1    1    1   -0.000060    0.000000
    5   -5    1    2    1   -0.000000    0.000000
    5   -5    1    1    2   -0.000000    0.000000
    5   -5    1    2    2    0.000055   -0.000000
    5   -5    2    1    1    0.000018   -0.000000
    5   -5    2    2    1   -0.000000   -0.000000
    5   -5    2    1    2   -0.000000   -0.000000
    5   -5    2    2    2    0.000248   -0.000000
    5   -5    3    1    1    0.000044    0.000000
    5   -5    3    2    1   -0.000000    0.000000
    5   -5    3    1    2   -0.000000    0.000000
    5   -5    3    2    2    0.000096    0.000000
    5   -5    4    1    1    0.000069   -0.000000
    5   -5    4    2    1   -0.000000    0.000000
    5   -5    4    1    2   -0.000000    0.000000
    5   -5    4    2    2    0.000086    0.000000
    5   -4   -4    1    1    0.000065    0.000000
    5   -4   -4    2    1   -0.000016    0.000000
    5   -4   -4    1    2   -0.000016    0.000000
    5   -4   -4    2    2    0.000077    0.000000
    5   -4   -3    1    1    0.000032    0.000000
    5   -4   -3    2    1   -0.000002    0.000000
    5   -4   -3    1    2   -0.000002    0.000000
    5   -4   -3    2    2    0.000040    0.000000
    5   -4   -2    1    1   -0.000015   -0.000000
    5   -4   -2    2    1    0.000003   -0.000000
    5   -4   -2    1    2    0.000003   -0.000000
    5   -4   -2    2    2    0.000153    0.000000
    5   -4   -1    1    1   -0.000057    0.000000
    5   -4   -1    2    1    0.000004   -0.000000
    5   -4   -1    1    2    0.000004   -0.000000
    5   -4   -1    2    2    0.000062   -0.000000
    5   -4    0    1    1   -0.000052   -0.000000
    5   -4    0    2    1   -0.000012    0.000000
    5   -4    0    1    2   -0.000012    0.000000
    5   -4    0    2    2   -0.000152   -0.000000
    5   -4    1    1    1   -0.000057    0.000000
    5   -4    1    2    1    0.000004    0.000000
    5   -4    1    1    2    0.000004    0.000000
    5   -4    1    2    2    0.000062    0.000000
    5   -4    2    1    1   -0.000015   -0.000000
    5   -4    2    2    1    0.000003   -0.000000
    5   -4    2    1    2    0.000003   -0.000000
    5   -4    2    2    2    0.000153    0.000000
    5   -4    3    1    1    0.000032    0.000000
    5   -4    3    2    1   -0.000002    0.000000
    5   -4    3    1    2   -0.000002   -0.000000
    5   -4    3    2    2    0.000040   -0.000000
    5   -4    4    1    1    0.000065   -0.000000
    5   -4    4    2    1   -0.000016    0.000000
    5   -4    4    1    2   -0.000016    0.000000
    5   -4    4    2    2    0.000077   -0.000000
    5   -3   -4    1    1    0.000062    0.000000
    5   -3   -4    2    1   -0.000024   -0.000000
    5   -3   -4    1    2   -0.000024   -0.000000
    5   -3   -4    2    2    0.000028   -0.000000
    5   -3   -3    1    1    0.000043   -0.000000
    5   -3   -3    2    1   -0.000035    0.000000
    5   -3   -3    1    2   -0.000035    0.000000
    5   -3   -3    2    2    0.000075   -0.000000
    5   -3   -2    1    1   -0.000005   -0.000000
    5   -3   -2    2    1   -0.000003    0.000000
    5   -3   -2    1    2   -0.000003    0.000000
    5   -3   -2    2    2    0.000010    0.000000
    5   -3   -1    1    1   -0.000080    0.000000
    5   -3   -1    2    1    0.000004   -0.000000
    5   -3   -1    1    2    0.000004   -0.000000
    5   -3   -1    2    2    0.000073    0.000000
    5   -3    0    1    1   -0.000097    0.000000
    5   -3    0    2    1    0.000034   -0.000000
    5   -3    0    1    2    0.000034   -0.000000
    5   -3    0    2    2   -0.000051   -0.000000
    5   -3    1    1    1   -0.000080   -0.000000
    5   -3    1    2    1    0.000004    0.000000
    5   -3    1    1    2    0.000004    0.000000
    5   -3    1    2    2    0.000073   -0.000000
    5   -3    2    1    1   -0.000005   -0.000000
    5   -3    2    2    1   -0.000003    0.000000
    5   -3    2    1    2   -0.000003    0.000000
    5   -3    2    2    2    0.000010    0.000000
    5   -3    3    1    1    0.000043   -0.000000
    5   -3    3    2    1   -0.000035    0.000000
    5   -3    3    1    2   -0.000035    0.000000
    5   -3    3    2    2    0.000075   -0.000000
    5   -3    4    1    1    0.000062    0.000000
    5   -3    4    2    1   -0.000024   -0.000000
    5   -3    4    1    2   -0.000024   -0.000000
    5   -3    4    2    2    0.000028   -0.000000
    5   -2   -4    1    1    0.000119    0.000000
    5   -2   -4    2    1   -0.000083    0.000000
    5   -2   -4    1    2   -0.000083    0.000000
    5   -2   -4    2    2    0.000008   -0.000000
    5   -2   -3    1    1    0.000052   -0.000000
    5   -2   -3    2    1   -0.000047    0.000000
    5   -2   -3    1    2   -0.000047    0.000000
    5   -2   -3    2    2    0.000033   -0.000000
    5   -2   -2    1    1   -0.000107    0.000000
    5   -2   -2    2    1    0.000036   -0.000000
    5   -2   -2    1    2    0.000036   -0.000000
    5   -2   -2    2    2   -0.000196    0.000000
    5   -2   -1    1    1   -0.000153    0.000000
    5   -2   -1    2    1    0.000083    0.000000
    5   -2   -1    1    2    0.000083    0.000000
    5   -2   -1    2    2   -0.000071    0.000000
    5   -2    0    1    1    0.000007    0.000000
    5   -2    0    2    1   -0.000072    0.000000
    5   -2    0    1    2   -0.000072    0.000000
    5   -2    0    2    2    0.000169   -0.000000
    5   -2    1    1    1   -0.000153    0.000000
    5   -2    1    2    1    0.000083    0.000000
    5   -2    1    1    2    0.000083    0.000000
    5   -2    1    2    2   -0.000071   -0.000000
    5   -2    2    1    1   -0.000107    0.000000
    5   -2    2    2    1    0.000036    0.000000
    5   -2    2    1    2    0.000036    0.000000
    5   -2    2    2    2   -0.000196    0.000000
    5   -2    3    1    1    0.000052   -0.000000
    5   -2    3    2    1   -0.000047   -0.000000
    5   -2    3    1    2   -0.000047   -0.000000
    5   -2    3    2    2    0.000033    0.000000
    5   -2    4    1    1    0.000119    0.000000
    5   -2    4    2    1   -0.000083    0.000000
    5   -2    4    1    2   -0.000083   -0.000000
    5   -2    4    2    2    0.000008    0.000000
    5   -1   -4    1    1    0.000049    0.000000
    5   -1   -4    2    1   -0.000036   -0.000000
    5   -1   -4    1    2   -0.000036   -0.000000
    5   -1   -4    2    2   -0.000050    0.000000
    5   -1   -3    1    1    0.000027   -0.000000
    5   -1   -3    2    1   -0.000034   -0.000000
    5   -1   -3    1    2   -0.000034   -0.000000
    5   -1   -3    2    2   -0.000095    0.000000
    5   -1   -2    1    1   -0.000013    0.000000
    5   -1   -2    2    1   -0.000016   -0.000000
    5   -1   -2    1    2   -0.000016   -0.000000
    5   -1   -2    2    2   -0.000194    0.000000
    5   -1   -1    1    1   -0.000062   -0.000000
    5   -1   -1    2    1    0.000202    0.000000
    5   -1   -1    1    2    0.000202    0.000000
    5   -1   -1    2    2   -0.000325    0.000000
    5   -1    0    1    1   -0.000315    0.000000
    5   -1    0    2    1    0.000929    0.000000
    5   -1    0    1    2    0.000929    0.000000
    5   -1    0    2    2   -0.001564    0.000000
    5   -1    1    1    1   -0.000062   -0.000000
    5   -1    1    2    1    0.000202   -0.000000
    5   -1    1    1    2    0.000202   -0.000000
    5   -1    1    2    2   -0.000325    0.000000
    5   -1    2    1    1   -0.000013   -0.000000
    5   -1    2    2    1   -0.000016    0.000000
    5   -1    2    1    2   -0.000016    0.000000
    5   -1    2    2    2   -0.000194   -0.000000
    5   -1    3    1    1    0.000027    0.000000
    5   -1    3    2    1   -0.000034   -0.000000
    5   -1    3    1    2   -0.000034   -0.000000
    5   -1    3    2    2   -0.000095   -0.000000
    5   -1    4    1    1    0.000049    0.000000
    5   -1    4    2    1   -0.000036   -0.000000
    5   -1    4    1    2   -0.000036   -0.000000
    5   -1    4    2    2   -0.000050   -0.000000
    5    0   -4    1    1   -0.000245   -0.000000
    5    0   -4    2    1    0.000128   -0.000000
    5    0   -4    1    2    0.000128   -0.000000
    5    0   -4    2    2   -0.000173    0.000000
    5    0   -3    1    1   -0.000113    0.000000
    5    0   -3    2    1    0.000094   -0.000000
    5    0   -3    1    2    0.000094   -0.000000
    5    0   -3    2    2   -0.000175   -0.000000
    5    0   -2    1    1    0.000071    0.000000
    5    0   -2    2    1   -0.000172   -0.000000
    5    0   -2    1    2   -0.000172   -0.000000
    5    0   -2    2    2    0.000143   -0.000000
    5    0   -1    1    1   -0.000376    0.000000
    5    0   -1    2    1    0.000944    0.000000
    5    0   -1    1    2    0.000944    0.000000
    5    0   -1    2    2   -0.001450   -0.000000
    5    0    0    1    1   -0.002040   -0.000000
    5    0    0    2    1    0.004255   -0.000000
    5    0    0    1    2    0.004255   -0.000000
    5    0    0    2    2   -0.007179    0.000000
    5    0    1    1    1   -0.000376   -0.000000
    5    0    1    2    1    0.000944   -0.000000
    5    0    1    1    2    0.000944   -0.000000
    5    0    1    2    2   -0.001450    0.000000
    5    0    2    1    1    0.000071   -0.000000
    5    0    2    2    1   -0.000172    0.000000
    5    0    2    1    2   -0.000172    0.000000
    5    0    2    2    2    0.000143    0.000000
    5    0    3    1    1   -0.000113   -0.000000
    5    0    3    2    1    0.000094    0.000000
    5    0    3    1    2    0.000094    0.000000
    5    0    3    2    2   -0.000175    0.000000
    5    0    4    1    1   -0.000245    0.000000
    5    0    4    2    1    0.000128    0.000000
    5    0    4    1    2    0.000128    0.000000
    5    0    4    2    2   -0.000173   -0.000000
    5    1   -4    1    1    0.000049   -0.000000
    5    1   -4    2    1   -0.000036    0.000000
    5    1   -4    1    2   -0.000036    0.000000
    5    1   -4    2    2   -0.000050    0.000000
    5    1   -3    1    1    0.000027    0.000000
    5    1   -3    2    1   -0.000034    0.000000
    5    1   -3    1    2   -0.000034    0.000000
    5    1   -3    2    2   -0.000095    0.000000
    5    1   -2    1    1   -0.000013    0.000000
    5    1   -2    2    1   -0.000016   -0.000000
    5    1   -2    1    2   -0.000016   -0.000000
    5    1   -2    2    2   -0.000194    0.000000
    5    1   -1    1    1   -0.000062    0.000000
    5    1   -1    2    1    0.000202    0.000000
    5    1   -1    1    2    0.000202    0.000000
    5    1   -1    2    2   -0.000325   -0.000000
    5    1    0    1    1   -0.000315   -0.000000
    5    1    0    2    1    0.000929   -0.000000
    5    1    0    1    2    0.000929   -0.000000
    5    1    0    2    2   -0.001564   -0.000000
    5    1    1    1    1   -0.000062    0.000000
    5    1    1    2    1    0.000202   -0.000000
    5    1    1    1    2    0.000202   -0.000000
    5    1    1    2    2   -0.000325   -0.000000
    5    1    2    1    1   -0.000013   -0.000000
    5    1    2    2    1   -0.000016    0.000000
    5    1    2    1    2   -0.000016    0.000000
    5    1    2    2    2   -0.000194   -0.000000
    5    1    3    1    1    0.000027    0.000000
    5    1    3    2    1   -0.000034    0.000000
    5    1    3    1    2   -0.000034    0.000000
    5    1    3    2    2   -0.000095   -0.000000
    5    1    4    1    1    0.000049   -0.000000
    5    1    4    2    1   -0.000036    0.000000
    5    1    4    1    2   -0.000036    0.000000
    5    1    4    2    2   -0.000050   -0.000000
    5    2   -4    1    1    0.000119   -0.000000
    5    2   -4    2    1   -0.000083    0.000000
    5    2   -4    1    2   -0.000083   -0.000000
    5    2   -4    2    2    0.000008   -0.000000
    5    2   -3    1    1    0.000052    0.000000
    5    2   -3    2    1   -0.000047    0.000000
    5    2   -3    1    2   -0.000047    0.000000
    5    2   -3    2    2    0.000033   -0.000000
    5    2   -2    1    1   -0.000107   -0.000000
    5    2   -2    2    1    0.000036   -0.000000
    5    2   -2    1    2    0.000036   -0.000000
    5    2   -2    2    2   -0.000196   -0.000000
    5    2   -1    1    1   -0.000153   -0.000000
    5    2   -1    2    1    0.000083   -0.000000
    5    2   -1    1    2    0.000083   -0.000000
    5    2   -1    2    2   -0.000071    0.000000
    5    2    0    1    1    0.000007   -0.000000
    5    2    0    2    1   -0.000072   -0.000000
    5    2    0    1    2   -0.000072   -0.000000
    5    2    0    2    2    0.000169    0.000000
    5    2    1    1    1   -0.000153   -0.000000
    5    2    1    2    1    0.000083   -0.000000
    5    2    1    1    2    0.000083   -0.000000
    5    2    1    2    2   -0.000071   -0.000000
    5    2    2    1    1   -0.000107    0.000000
    5    2    2    2    1    0.000036    0.000000
    5    2    2    1    2    0.000036    0.000000
    5    2    2    2    2   -0.000196   -0.000000
    5    2    3    1    1    0.000052    0.000000
    5    2    3    2    1   -0.000047   -0.000000
    5    2    3    1    2   -0.000047   -0.000000
    5    2    3    2    2    0.000033    0.000000
    5    2    4    1    1    0.000119   -0.000000
    5    2    4    2    1   -0.000083   -0.000000
    5    2    4    1    2   -0.000083   -0.000000
    5    2    4    2    2    0.000008    0.000000
    5    3   -4    1    1    0.000062   -0.000000
    5    3   -4    2    1   -0.000024    0.000000
    5    3   -4    1    2   -0.000024    0.000000
    5    3   -4    2    2    0.000028    0.000000
    5    3   -3    1    1    0.000043    0.000000
    5    3   -3    2    1   -0.000035   -0.000000
    5    3   -3    1    2   -0.000035   -0.000000
    5    3   -3    2    2    0.000075    0.000000
    5    3   -2    1    1   -0.000005    0.000000
    5    3   -2    2    1   -0.000003   -0.000000
    5    3   -2    1    2   -0.000003   -0.000000
    5    3   -2    2    2    0.000010   -0.000000
    5    3   -1    1    1   -0.000080    0.000000
    5    3   -1    2    1    0.000004   -0.000000
    5    3   -1    1    2    0.000004   -0.000000
    5    3   -1    2    2    0.000073    0.000000
    5    3    0    1    1   -0.000097   -0.000000
    5    3    0    2    1    0.000034    0.000000
    5    3    0    1    2    0.000034    0.000000
    5    3    0    2    2   -0.000051    0.000000
    5    3    1    1    1   -0.000080   -0.000000
    5    3    1    2    1    0.000004    0.000000
    5    3    1    1    2    0.000004    0.000000
    5    3    1    2    2    0.000073   -0.000000
    5    3    2    1    1   -0.000005    0.000000
    5    3    2    2    1   -0.000003   -0.000000
    5    3    2    1    2   -0.000003   -0.000000
    5    3    2    2    2    0.000010   -0.000000
    5    3    3    1    1    0.000043    0.000000
    5    3    3    2    1   -0.000035   -0.000000
    5    3    3    1    2   -0.000035   -0.000000
    5    3    3    2    2    0.000075    0.000000
    5    3    4    1    1    0.000062   -0.000000
    5    3    4    2    1   -0.000024    0.000000
    5    3    4    1    2   -0.000024    0.000000
    5    3    4    2    2    0.000028    0.000000
    5    4   -4    1    1    0.000065    0.000000
    5    4   -4    2    1   -0.000016   -0.000000
    5    4   -4    1    2   -0.000016   -0.000000
    5    4   -4    2    2    0.000077    0.000000
    5    4   -3    1    1    0.000032   -0.000000
    5    4   -3    2    1   -0.000002    0.000000
    5    4   -3    1    2   -0.000002   -0.000000
    5    4   -3    2    2    0.000040    0.000000
    5    4   -2    1    1   -0.000015    0.000000
    5    4   -2    2    1    0.000003    0.000000
    5    4   -2    1    2    0.000003    0.000000
    5    4   -2    2    2    0.000153   -0.000000
    5    4   -1    1    1   -0.000057   -0.000000
    5    4   -1    2    1    0.000004   -0.000000
    5    4   -1    1    2    0.000004   -0.000000
    5    4   -1    2    2    0.000062   -0.000000
    5    4    0    1    1   -0.000052    0.000000
    5    4    0    2    1   -0.000012   -0.000000
    5    4    0    1    2   -0.000012   -0.000000
    5    4    0    2    2   -0.000152    0.000000
    5    4    1    1    1   -0.000057   -0.000000
    5    4    1    2    1    0.000004    0.000000
    5    4    1    1    2    0.000004    0.000000
    5    4    1    2    2    0.000062    0.000000
    5    4    2    1    1   -0.000015    0.000000
    5    4    2    2    1    0.000003    0.000000
    5    4    2    1    2    0.000003    0.000000
    5    4    2    2    2    0.000153    0.000000
    5    4    3    1    1    0.000032   -0.000000
    5    4    3    2    1   -0.000002   -0.000000
    5    4    3    1    2   -0.000002   -0.000000
    5    4    3    2    2    0.000040   -0.000000
    5    4    4    1    1    0.000065   -0.000000
    5    4    4    2    1   -0.000016   -0.000000
    5    4    4    1    2   -0.000016   -0.000000
    5    4    4    2    2    0.000077   -0.000000
    5    5   -4    1    1    0.000069    0.000000
    5    5   -4    2    1   -0.000000   -0.000000
    5    5   -4    1    2   -0.000000   -0.000000
    5    5   -4    2    2    0.000086   -0.000000
    5    5   -3    1    1    0.000044   -0.000000
    5    5   -3    2    1   -0.000000   -0.000000
    5    5   -3    1    2   -0.000000   -0.000000
    5    5   -3    2    2    0.000096   -0.000000
    5    5   -2    1    1    0.000018    0.000000
    5    5   -2    2    1   -0.000000    0.000000
    5    5   -2    1    2   -0.000000    0.000000
    5    5   -2    2    2    0.000248    0.000000
    5    5   -1    1    1   -0.000060   -0.000000
    5    5   -1    2    1   -0.000000   -0.000000
    5    5   -1    1    2   -0.000000   -0.000000
    5    5   -1    2    2    0.000055    0.000000
    5    5    0    1    1   -0.000066   -0.000000
    5    5    0    2    1    0.000000   -0.000000
    5    5    0    1    2    0.000000    0.000000
    5    5    0    2    2   -0.000275   -0.000000
    5    5    1    1    1   -0.000060    0.000000
    5    5    1    2    1   -0.000000    0.000000
    5    5    1    1    2   -0.000000    0.000000
    5    5    1    2    2    0.000055   -0.000000
    5    5    2    1    1    0.000018   -0.000000
    5    5    2    2    1   -0.000000   -0.000000
    5    5    2    1    2   -0.000000   -0.000000
    5    5    2    2    2    0.000248   -0.000000
    5    5    3    1    1    0.000044    0.000000
    5    5    3    2    1   -0.000000    0.000000
    5    5    3    1    2   -0.000000    0.000000
    5    5    3    2    2    0.000096    0.000000
    5    5    4    1    1    0.000069   -0.000000
    5    5    4    2    1   -0.000000    0.000000
    5    5    4    1    2   -0.000000    0.000000
    5    5    4    2    2    0.000086    0.000000
