 
             +---------------------------------------------------+
             |                                                   |
             |                   WANNIER90                       |
             |                                                   |
             +---------------------------------------------------+
             |                                                   |
             |        Welcome to the Maximally-Localized         |
             |        Generalized Wannier Functions code         |
             |            http://www.wannier.org                 |
             |                                                   |
             |  Wannier90 v2.x Authors:                          |
             |    Arash A. Mostofi  (Imperial College London)    |
             |    Giovanni Pizzi    (EPFL)                       |
             |    Ivo Souza         (Universidad del Pais Vasco) |
             |    Jonathan R. Yates (University of Oxford)       |
             |                                                   |
             |  Wannier90 Contributors:                          |
             |    Young-Su Lee       (KIST, S. Korea)            |
             |    Matthew Shelley    (Imperial College London)   |
             |    Nicolas Poilvert   (Penn State University)     |
             |    Raffaello Bianco   (Paris 6 and CNRS)          |
             |    Gabriele Sclauzero (ETH Zurich)                |
             |    David Strubbe (MIT, USA)                       |
             |    Rei Sakuma (Lund University, Sweden)           |
             |    Yusuke Nomura (U. Tokyo, Japan)                |
             |    Takashi Koretsune (Riken, Japan)               |
             |    Yoshiro Nohara (ASMS Co. Ltd., Japan)          |
             |    Ryotaro Arita (Riken, Japan)                   |
             |    Lorenzo Paulatto (UPMC Paris)                  |
             |    Florian Thole (ETH Zurich)                     |
             |    Pablo Garcia Fernandez (Unican, Spain)         |
             |    Dominik Gresch (ETH Zurich)                    |
             |    Samuel Ponce (University of Oxford)            |
             |    Marco Gibertini (EPFL)                         |
             |    Christian Stieger (ETHZ, CH)                   |
             |    Stepan Tsirkin (Universidad del Pais Vasco)    |
             |                                                   |
             |  Wannier77 Authors:                               |
             |    Nicola Marzari    (EPFL)                       |
             |    Ivo Souza         (Universidad del Pais Vasco) |
             |    David Vanderbilt  (Rutgers University)         |
             |                                                   |
             |  Please cite                                      |
             |                                                   |
             |  [ref] "An updated version of Wannier90:          |
             |        A Tool for Obtaining Maximally Localised   |
             |        Wannier Functions", A. A. Mostofi,         |
             |        J. R. Yates, G. Pizzi, Y. S. Lee,          |
             |        I. Souza, D. Vanderbilt and N. Marzari,    |
             |        Comput. Phys. Commun. 185, 2309 (2014)     |
             |        http://dx.doi.org/10.1016/j.cpc.2014.05.003|
             |                                                   |
             |  in any publications arising from the use of      |
             |  this code. For the method please cite            |
             |                                                   |
             |  [ref] "Maximally Localized Generalised Wannier   |
             |         Functions for Composite Energy Bands"     |
             |         N. Marzari and D. Vanderbilt              |
             |         Phys. Rev. B 56 12847 (1997)              |
             |                                                   |
             |  [ref] "Maximally Localized Wannier Functions     |
             |         for Entangled Energy Bands"               |
             |         I. Souza, N. Marzari and D. Vanderbilt    |
             |         Phys. Rev. B 65 035109 (2001)             |
             |                                                   |
             |                                                   |
             | Copyright (c) 1996-2017                           |
             |        Arash A. Mostofi, Jonathan R. Yates,       |
             |        Young-Su Lee, Giovanni Pizzi, Ivo Souza,   |
             |        David Vanderbilt and Nicola Marzari        |
             |                                                   |
             |        Release: 2.1.0   13th January 2017         |
             |                                                   |
             | This program is free software; you can            |
             | redistribute it and/or modify it under the terms  |
             | of the GNU General Public License as published by |
             | the Free Software Foundation; either version 2 of |
             | the License, or (at your option) any later version|
             |                                                   |
             | This program is distributed in the hope that it   |
             | will be useful, but WITHOUT ANY WARRANTY; without |
             | even the implied warranty of MERCHANTABILITY or   |
             | FITNESS FOR A PARTICULAR PURPOSE. See the GNU     |
             | General Public License for more details.          |
             |                                                   |
             | You should have received a copy of the GNU General|
             | Public License along with this program; if not,   |
             | write to the Free Software Foundation, Inc.,      |
             | 675 Mass Ave, Cambridge, MA 02139, USA.           |
             |                                                   |
             +---------------------------------------------------+
             |    Execution started on  3Aug2019 at 14:40:22     |
             +---------------------------------------------------+
 
 ******************************************************************************
 * -> Using CODATA 2006 constant values                                       *
 *    (http://physics.nist.gov/cuu/Constants/index.html)                      *
 * -> Using Bohr value from CODATA                                            *
 ******************************************************************************
 
 
                                    ------
                                    SYSTEM
                                    ------
 
                              Lattice Vectors (Ang)
                    a_1     3.775000   0.000000   0.000000
                    a_2     0.000000   3.775000   0.000000
                    a_3     0.000000   0.000000   3.980500
 
                   Unit Cell Volume:      56.72461  (Ang^3)
 
                        Reciprocal-Space Vectors (Ang^-1)
                    b_1     1.664420   0.000000   0.000000
                    b_2     0.000000   1.664420   0.000000
                    b_3     0.000000   0.000000   1.578491
  
 *----------------------------------------------------------------------------*
 |   Site       Fractional Coordinate          Cartesian Coordinate (Ang)     |
 +----------------------------------------------------------------------------+
 | 1    1   0.00000   0.00000   0.00000   |    0.00000   0.00000   0.00000    |
 | 2    1   0.50000   0.50000   0.50000   |    1.88750   1.88750   1.99025    |
 | 3    1   0.50000   0.50000   0.00000   |    1.88750   1.88750   0.00000    |
 | 4    1   0.50000   0.00000   0.50000   |    1.88750   0.00000   1.99025    |
 | 5    1   0.00000   0.50000   0.50000   |    0.00000   1.88750   1.99025    |
 *----------------------------------------------------------------------------*
  
                                ------------
                                K-POINT GRID
                                ------------
  
             Grid size = 10 x 10 x  9      Total points =  900
  
  
 *---------------------------------- MAIN ------------------------------------*
 |  Number of Wannier Functions               :                 2             |
 |  Number of input Bloch states              :                 5             |
 |  Output verbosity (1=low, 5=high)          :                 1             |
 |  Timing Level (1=low, 5=high)              :                 1             |
 |  Optimisation (0=memory, 3=speed)          :                 3             |
 |  Length Unit                               :               Ang             |
 |  Post-processing setup (write *.nnkp)      :                 F             |
 |  Using Gamma-only branch of algorithms     :                 F             |
 *----------------------------------------------------------------------------*
 *------------------------------- WANNIERISE ---------------------------------*
 |  Total number of iterations                :             10000             |
 |  Number of CG steps before reset           :                 5             |
 |  Trial step length for line search         :             2.000             |
 |  Convergence tolerence                     :         0.100E-09             |
 |  Convergence window                        :                 3             |
 |  Iterations between writing output         :               100             |
 |  Iterations between backing up to disk     :               100             |
 |  Write r^2_nm to file                      :                 F             |
 |  Write xyz WF centres to file              :                 T             |
 |  Write on-site energies <0n|H|0n> to file  :                 F             |
 |  Use guiding centre to control phases      :                 T             |
 |  Use phases for initial projections        :                 F             |
 |  Iterations before starting guiding centres:                 0             |
 |  Iterations between using guiding centres  :                 1             |
 *----------------------------------------------------------------------------*
 *------------------------------- DISENTANGLE --------------------------------*
 |  Using band disentanglement                :                 T             |
 |  Total number of iterations                :             10000             |
 |  Mixing ratio                              :             0.500             |
 |  Convergence tolerence                     :         1.000E-10             |
 |  Convergence window                        :                 3             |
 *----------------------------------------------------------------------------*
 *-------------------------------- PLOTTING ----------------------------------*
 |  Plotting interpolated bandstructure       :                 T             |
 |   Number of K-path sections                :                 7             |
 |   Divisions along first K-path section     :                50             |
 |   Output format                            :           gnuplot             |
 |   Output mode                              :               s-k             |
 *----------------------------------------------------------------------------*
 |   K-space path sections:                                                   |
 |    From:  G    0.000  0.000  0.000     To:  X    0.500  0.000  0.000       |
 |    From:  X    0.500  0.000  0.000     To:  M    0.500  0.500  0.000       |
 |    From:  M    0.500  0.500  0.000     To:  G    0.000  0.000  0.000       |
 |    From:  G    0.000  0.000  0.000     To:  Z    0.000  0.000 -0.500       |
 |    From:  Z    0.000  0.000 -0.500     To:  R    0.500  0.000 -0.500       |
 |    From:  R    0.500  0.000 -0.500     To:  A    0.500  0.500 -0.500       |
 |    From:  A    0.500  0.500 -0.500     To:  Z    0.000  0.000 -0.500       |
 *----------------------------------------------------------------------------*
 |  Plotting Hamiltonian in WF basis          :                 T             |
 *----------------------------------------------------------------------------*
 Time to read parameters        0.047 (sec)

 *---------------------------------- K-MESH ----------------------------------*
 +----------------------------------------------------------------------------+
 |                    Distance to Nearest-Neighbour Shells                    |
 |                    ------------------------------------                    |
 |          Shell             Distance (Ang^-1)          Multiplicity         |
 |          -----             -----------------          ------------         |
 |             1                   0.166442                      4            |
 |             2                   0.175388                      2            |
 |             3                   0.235385                      4            |
 |             4                   0.241793                      8            |
 |             5                   0.293542                      8            |
 |             6                   0.332884                      4            |
 |             7                   0.350776                      2            |
 |             8                   0.372176                      8            |
 |             9                   0.376261                      8            |
 |            10                   0.388261                      8            |
 |            11                   0.411431                     16            |
 |            12                   0.422433                      8            |
 +----------------------------------------------------------------------------+
 | The b-vectors are chosen automatically                                     |
 | The following shells are used:   1,  2                                     |
 +----------------------------------------------------------------------------+
 |                        Shell   # Nearest-Neighbours                        |
 |                        -----   --------------------                        |
 |                          1               4                                 |
 |                          2               2                                 |
 +----------------------------------------------------------------------------+
 | Completeness relation is fully satisfied [Eq. (B1), PRB 56, 12847 (1997)]  |
 +----------------------------------------------------------------------------+
 |                  b_k Vectors (Ang^-1) and Weights (Ang^2)                  |
 |                  ----------------------------------------                  |
 |            No.         b_k(x)      b_k(y)      b_k(z)        w_b           |
 |            ---        --------------------------------     --------        |
 |             1         0.000000    0.166442    0.000000    18.048627        |
 |             2         0.166442    0.000000    0.000000    18.048627        |
 |             3         0.000000   -0.166442    0.000000    18.048627        |
 |             4        -0.166442    0.000000    0.000000    18.048627        |
 |             5         0.000000    0.000000    0.175388    16.254386        |
 |             6         0.000000    0.000000   -0.175388    16.254386        |
 +----------------------------------------------------------------------------+
 |                           b_k Directions (Ang^-1)                          |
 |                           -----------------------                          |
 |            No.           x           y           z                         |
 |            ---        --------------------------------                     |
 |             1         0.000000    0.166442    0.000000                     |
 |             2         0.166442    0.000000    0.000000                     |
 |             3         0.000000    0.000000    0.175388                     |
 +----------------------------------------------------------------------------+
  
 *============================================================================*
 |                              MEMORY ESTIMATE                               |
 |         Maximum RAM allocated during each phase of the calculation         |
 *============================================================================*
 |                        Disentanglement            3.46 Mb                  |
 |                            Wannierise:            1.73 Mb                  |
 |                          plot_wannier:            1.73 Mb                  |
 *----------------------------------------------------------------------------*
  
 Starting a new Wannier90 calculation ...

 Time to get kmesh              0.150 (sec)

 Reading overlaps from w2w.mmn    : LaNiO3

 Reading projections from w2w.amn : LaNiO3

 Time to read overlaps          0.089 (sec)

 *------------------------------- DISENTANGLE --------------------------------*
 +----------------------------------------------------------------------------+
 |                              Energy  Windows                               |
 |                              ---------------                               |
 |                   Outer:   -1.84698  to    3.22581  (eV)                   |
 |                   Inner:    0.00000  to    3.50000  (eV)                   |
 +----------------------------------------------------------------------------+
   Number of target bands to extract:    2

                   Unitarised projection of Wannier functions                  
                   ------------------------------------------                  
   A_mn = <psi_m|g_n> --> S = A.A^+ --> U = S^-1/2.A
   In dis_project... done
   Using an inner window (linner = T)
   In dis_proj_froz... done

                   Extraction of optimally-connected subspace                  
                   ------------------------------------------                  
 +---------------------------------------------------------------------+<-- DIS
 |  Iter     Omega_I(i-1)      Omega_I(i)      Delta (frac.)    Time   |<-- DIS
 +---------------------------------------------------------------------+<-- DIS
       1       7.81920508       7.44930677       4.966E-02      0.30    <-- DIS
       2       7.49647260       7.37364567       1.666E-02      0.31    <-- DIS
       3       7.40786540       7.32736813       1.099E-02      0.31    <-- DIS
       4       7.34854332       7.29766280       6.972E-03      0.32    <-- DIS
       5       7.30941107       7.27820503       4.288E-03      0.32    <-- DIS
       6       7.28379357       7.26529392       2.546E-03      0.33    <-- DIS
       7       7.26709719       7.25664256       1.441E-03      0.33    <-- DIS
       8       7.25625116       7.25079918       7.519E-04      0.34    <-- DIS
       9       7.24923045       7.24682565       3.318E-04      0.34    <-- DIS
      10       7.24470774       7.24410761       8.284E-05      0.35    <-- DIS
      11       7.24181491       7.24223853      -5.849E-05      0.35    <-- DIS
      12       7.23998425       7.24094703      -1.330E-04      0.36    <-- DIS
      13       7.23884429       7.24005065      -1.666E-04      0.36    <-- DIS
      14       7.23815176       7.23942592      -1.760E-04      0.37    <-- DIS
      15       7.23774728       7.23898882      -1.715E-04      0.37    <-- DIS
      16       7.23752648       7.23868187      -1.596E-04      0.38    <-- DIS
      17       7.23742113       7.23846556      -1.443E-04      0.38    <-- DIS
      18       7.23738678       7.23831262      -1.279E-04      0.39    <-- DIS
      19       7.23739460       7.23820416      -1.118E-04      0.39    <-- DIS
      20       7.23742609       7.23812700      -9.684E-05      0.40    <-- DIS
      21       7.23746953       7.23807195      -8.323E-05      0.40    <-- DIS
      22       7.23751760       7.23803259      -7.115E-05      0.41    <-- DIS
      23       7.23756591       7.23800436      -6.058E-05      0.41    <-- DIS
      24       7.23761194       7.23798407      -5.141E-05      0.42    <-- DIS
      25       7.23765433       7.23796945      -4.354E-05      0.42    <-- DIS
      26       7.23769251       7.23795890      -3.680E-05      0.43    <-- DIS
      27       7.23772636       7.23795127      -3.107E-05      0.43    <-- DIS
      28       7.23775602       7.23794574      -2.621E-05      0.44    <-- DIS
      29       7.23778179       7.23794173      -2.210E-05      0.44    <-- DIS
      30       7.23780403       7.23793881      -1.862E-05      0.45    <-- DIS
      31       7.23782313       7.23793669      -1.569E-05      0.45    <-- DIS
      32       7.23783947       7.23793514      -1.322E-05      0.46    <-- DIS
      33       7.23785340       7.23793401      -1.114E-05      0.46    <-- DIS
      34       7.23786526       7.23793318      -9.385E-06      0.47    <-- DIS
      35       7.23787532       7.23793258      -7.910E-06      0.47    <-- DIS
      36       7.23788386       7.23793213      -6.670E-06      0.48    <-- DIS
      37       7.23789109       7.23793181      -5.626E-06      0.48    <-- DIS
      38       7.23789721       7.23793157      -4.747E-06      0.49    <-- DIS
      39       7.23790239       7.23793140      -4.007E-06      0.49    <-- DIS
      40       7.23790677       7.23793127      -3.384E-06      0.50    <-- DIS
      41       7.23791048       7.23793118      -2.860E-06      0.50    <-- DIS
      42       7.23791361       7.23793111      -2.418E-06      0.51    <-- DIS
      43       7.23791626       7.23793106      -2.045E-06      0.51    <-- DIS
      44       7.23791849       7.23793102      -1.730E-06      0.52    <-- DIS
      45       7.23792039       7.23793099      -1.465E-06      0.52    <-- DIS
      46       7.23792199       7.23793097      -1.241E-06      0.53    <-- DIS
      47       7.23792334       7.23793096      -1.052E-06      0.53    <-- DIS
      48       7.23792449       7.23793094      -8.918E-07      0.54    <-- DIS
      49       7.23792546       7.23793094      -7.566E-07      0.54    <-- DIS
      50       7.23792628       7.23793093      -6.422E-07      0.55    <-- DIS
      51       7.23792698       7.23793093      -5.453E-07      0.55    <-- DIS
      52       7.23792757       7.23793092      -4.633E-07      0.56    <-- DIS
      53       7.23792807       7.23793092      -3.938E-07      0.56    <-- DIS
      54       7.23792849       7.23793092      -3.348E-07      0.57    <-- DIS
      55       7.23792886       7.23793092      -2.849E-07      0.57    <-- DIS
      56       7.23792916       7.23793092      -2.424E-07      0.58    <-- DIS
      57       7.23792942       7.23793092      -2.064E-07      0.58    <-- DIS
      58       7.23792964       7.23793091      -1.758E-07      0.59    <-- DIS
      59       7.23792983       7.23793091      -1.498E-07      0.59    <-- DIS
      60       7.23792999       7.23793091      -1.277E-07      0.60    <-- DIS
      61       7.23793013       7.23793091      -1.089E-07      0.60    <-- DIS
      62       7.23793024       7.23793091      -9.291E-08      0.61    <-- DIS
      63       7.23793034       7.23793091      -7.929E-08      0.61    <-- DIS
      64       7.23793042       7.23793091      -6.768E-08      0.62    <-- DIS
      65       7.23793050       7.23793091      -5.779E-08      0.62    <-- DIS
      66       7.23793056       7.23793091      -4.936E-08      0.63    <-- DIS
      67       7.23793061       7.23793091      -4.218E-08      0.63    <-- DIS
      68       7.23793065       7.23793091      -3.605E-08      0.63    <-- DIS
      69       7.23793069       7.23793091      -3.082E-08      0.64    <-- DIS
      70       7.23793072       7.23793091      -2.635E-08      0.64    <-- DIS
      71       7.23793075       7.23793091      -2.254E-08      0.65    <-- DIS
      72       7.23793077       7.23793091      -1.928E-08      0.65    <-- DIS
      73       7.23793079       7.23793091      -1.650E-08      0.66    <-- DIS
      74       7.23793081       7.23793091      -1.412E-08      0.66    <-- DIS
      75       7.23793083       7.23793091      -1.209E-08      0.67    <-- DIS
      76       7.23793084       7.23793091      -1.035E-08      0.67    <-- DIS
      77       7.23793085       7.23793091      -8.867E-09      0.68    <-- DIS
      78       7.23793086       7.23793091      -7.596E-09      0.68    <-- DIS
      79       7.23793087       7.23793091      -6.508E-09      0.69    <-- DIS
      80       7.23793087       7.23793091      -5.577E-09      0.69    <-- DIS
      81       7.23793088       7.23793091      -4.779E-09      0.70    <-- DIS
      82       7.23793088       7.23793091      -4.097E-09      0.70    <-- DIS
      83       7.23793089       7.23793091      -3.512E-09      0.71    <-- DIS
      84       7.23793089       7.23793091      -3.011E-09      0.71    <-- DIS
      85       7.23793089       7.23793091      -2.582E-09      0.72    <-- DIS
      86       7.23793090       7.23793091      -2.215E-09      0.72    <-- DIS
      87       7.23793090       7.23793091      -1.900E-09      0.73    <-- DIS
      88       7.23793090       7.23793091      -1.630E-09      0.73    <-- DIS
      89       7.23793090       7.23793091      -1.398E-09      0.74    <-- DIS
      90       7.23793090       7.23793091      -1.200E-09      0.74    <-- DIS
      91       7.23793091       7.23793091      -1.029E-09      0.75    <-- DIS
      92       7.23793091       7.23793091      -8.835E-10      0.75    <-- DIS
      93       7.23793091       7.23793091      -7.583E-10      0.76    <-- DIS
      94       7.23793091       7.23793091      -6.509E-10      0.76    <-- DIS
      95       7.23793091       7.23793091      -5.587E-10      0.77    <-- DIS
      96       7.23793091       7.23793091      -4.797E-10      0.77    <-- DIS
      97       7.23793091       7.23793091      -4.118E-10      0.78    <-- DIS
      98       7.23793091       7.23793091      -3.536E-10      0.78    <-- DIS
      99       7.23793091       7.23793091      -3.036E-10      0.79    <-- DIS
     100       7.23793091       7.23793091      -2.607E-10      0.79    <-- DIS
     101       7.23793091       7.23793091      -2.239E-10      0.80    <-- DIS
     102       7.23793091       7.23793091      -1.923E-10      0.80    <-- DIS
     103       7.23793091       7.23793091      -1.652E-10      0.81    <-- DIS
     104       7.23793091       7.23793091      -1.419E-10      0.81    <-- DIS
     105       7.23793091       7.23793091      -1.219E-10      0.82    <-- DIS
     106       7.23793091       7.23793091      -1.047E-10      0.82    <-- DIS
     107       7.23793091       7.23793091      -8.993E-11      0.83    <-- DIS
     108       7.23793091       7.23793091      -7.726E-11      0.83    <-- DIS
     109       7.23793091       7.23793091      -6.638E-11      0.84    <-- DIS

             <<<      Delta < 1.000E-10  over  3 iterations     >>>
             <<< Disentanglement convergence criteria satisfied >>>

        Final Omega_I     7.23793091 (Ang^2)

 +----------------------------------------------------------------------------+

 Time to disentangle bands      0.558 (sec)

 Writing checkpoint file w2w.chk... done

 
 *------------------------------- WANNIERISE ---------------------------------*
 +--------------------------------------------------------------------+<-- CONV
 | Iter  Delta Spread     RMS Gradient      Spread (Ang^2)      Time  |<-- CONV
 +--------------------------------------------------------------------+<-- CONV
 
 ------------------------------------------------------------------------------
 Initial State
  WF centre and spread    1  ( -1.887500, -1.887500, -1.990250 )     3.74152646
  WF centre and spread    2  ( -1.887500, -1.887500, -1.990250 )     3.54444734
  Sum of centres and spreads ( -3.775000, -3.775000, -3.980500 )     7.28597379
 
      0     0.729E+01     0.0000000000        7.2859737928       0.85  <-- CONV
        O_D=      0.0000000 O_OD=      0.0480429 O_TOT=      7.2859738 <-- SPRD
 ------------------------------------------------------------------------------
 Cycle:      1
  WF centre and spread    1  ( -1.887500, -1.887500, -1.990250 )     3.73956127
  WF centre and spread    2  ( -1.887500, -1.887500, -1.990250 )     3.54555264
  Sum of centres and spreads ( -3.775000, -3.775000, -3.980500 )     7.28511391
 
      1    -0.860E-03     0.0226655542        7.2851139119       0.87  <-- CONV
        O_D=      0.0000000 O_OD=      0.0471830 O_TOT=      7.2851139 <-- SPRD
 Delta: O_D= -0.7637593E-11 O_OD= -0.8598809E-03 O_TOT= -0.8598809E-03 <-- DLTA
 ------------------------------------------------------------------------------

             <<<     Delta < 1.000E-10  over  3 iterations     >>>
             <<< Wannierisation convergence criteria satisfied >>>

 Final State
  WF centre and spread    1  ( -1.887500, -1.887500, -1.990250 )     3.72808675
  WF centre and spread    2  ( -1.887500, -1.887500, -1.990250 )     3.55592474
  Sum of centres and spreads ( -3.775000, -3.775000, -3.980500 )     7.28401149
 
         Spreads (Ang^2)       Omega I      =     7.237930913
        ================       Omega D      =     0.000000000
                               Omega OD     =     0.046080572
    Final Spread (Ang^2)       Omega Total  =     7.284011486
 ------------------------------------------------------------------------------

 Wannier centres written to file w2w_centres.xyz

 ------------------------------------------------------------------------------
          Projection of Bands in Outer Window on all Wannier Functions
         --------------------------------------------------------------
                    Kpt  Band      Eigval      |Projection|^2
                 -----------------------------------------------
                     1     1      -1.147991      0.00000000
                     1     2      -1.147991      0.00000000
                     1     3      -1.132355      0.00000000
                     1     4      -1.096266      1.00000000
                     1     5      -0.982177      1.00000000
                     2     1      -1.762635      0.00000000
                     2     2      -1.146573      0.00000000
                     2     3      -1.146573      0.00000000
                     2     4      -0.979409      1.00000000
                     2     5      -0.463367      1.00000000
                     3     1      -1.622991      0.00000000
                     3     2      -1.026348      0.00000000
                     3     3      -1.026348      0.00000000
                     3     4      -0.976356      1.00000000
                     3     5       0.108532      1.00000000
                     4     1      -1.676812      0.00000000
                     4     2      -0.974390      1.00000000
                     4     3      -0.811254      0.00000000
                     4     4      -0.811254      0.00000000
                     4     5       0.530597      1.00000000
                     5     1      -1.736546      0.00000000
                     5     2      -0.973196      1.00000000
                     5     3      -0.674436      0.00000000
                     5     4      -0.674436      0.00000000
                     5     5       0.750289      1.00000000
                     6     1      -1.736546      0.00000000
                     6     2      -0.973196      1.00000000
                     6     3      -0.674436      0.00000000
                     6     4      -0.674436      0.00000000
                     6     5       0.750289      1.00000000
                     7     1      -1.676812      0.00000000
                     7     2      -0.974390      1.00000000
                     7     3      -0.811254      0.00000000
                     7     4      -0.811254      0.00000000
                     7     5       0.530597      1.00000000
                     8     1      -1.622991      0.00000000
                     8     2      -1.026348      0.00000000
                     8     3      -1.026348      0.00000000
                     8     4      -0.976356      1.00000000
                     8     5       0.108532      1.00000000
                     9     1      -1.762635      0.00000000
                     9     2      -1.146573      0.00000000
                     9     3      -1.146573      0.00000000
                     9     4      -0.979409      1.00000000
                     9     5      -0.463367      1.00000000
                    10     1      -1.686293      0.02439102
                    10     2      -1.074152      0.99880975
                    10     3      -1.071869      0.00000000
                    10     4      -1.067150      0.00000000
                    10     5      -0.458486      0.97679923
                    11     1      -1.608707      0.00000000
                    11     2      -1.433272      0.05177545
                    11     3      -1.085390      0.00000000
                    11     4      -0.677532      0.94827608
                    11     5      -0.227507      0.99994847
                    12     1      -1.379970      0.00000000
                    12     2      -1.203318      0.04910463
                    12     3      -1.037343      0.00000000
                    12     4      -0.612837      0.95089537
                    12     5       0.296280      1.00000000
                    13     1      -1.380171      0.00000000
                    13     2      -0.921324      0.09305809
                    13     3      -0.836941      0.00000000
                    13     4      -0.607954      0.90694191
                    13     5       0.714955      1.00000000
                    14     1      -1.409782      0.00000000
                    14     2      -0.735261      0.12458799
                    14     3      -0.701519      0.00000000
                    14     4      -0.630658      0.87541201
                    14     5       0.933429      1.00000000
                    15     1      -1.409782      0.00000000
                    15     2      -0.735261      0.12458799
                    15     3      -0.701519      0.00000000
                    15     4      -0.630658      0.87541201
                    15     5       0.933429      1.00000000
                    16     1      -1.380171      0.00000000
                    16     2      -0.921324      0.09305809
                    16     3      -0.836941      0.00000000
                    16     4      -0.607954      0.90694191
                    16     5       0.714955      1.00000000
                    17     1      -1.379970      0.00000000
                    17     2      -1.203318      0.04910463
                    17     3      -1.037343      0.00000000
                    17     4      -0.612837      0.95089537
                    17     5       0.296280      1.00000000
                    18     1      -1.608707      0.00000000
                    18     2      -1.433272      0.05177545
                    18     3      -1.085390      0.00000000
                    18     4      -0.677532      0.94827608
                    18     5      -0.227507      0.99994847
                    19     1      -1.690055      0.00000000
                    19     2      -1.070236      1.00000000
                    19     3      -0.829982      0.00000000
                    19     4      -0.811824      0.00000000
                    19     5       0.105834      1.00000000
                    20     1      -1.557190      0.00000000
                    20     2      -1.112654      0.13243285
                    20     3      -0.840897      0.00000000
                    20     4      -0.597647      0.86756715
                    20     5       0.301470      1.00000000
                    21     1      -1.201114      0.00000000
                    21     2      -1.125476      0.01127145
                    21     3      -0.900066      0.00000000
                    21     4      -0.418848      0.98872855
                    21     5       0.776788      1.00000000
                    22     1      -1.003529      0.00000000
                    22     2      -0.968529      0.00508485
                    22     3      -0.883293      0.00000000
                    22     4      -0.355682      0.99491515
                    22     5       1.214044      1.00000000
                    23     1      -1.015291      0.00000000
                    23     2      -0.808170      0.00144688
                    23     3      -0.758322      0.00000000
                    23     4      -0.339739      0.99855312
                    23     5       1.448318      1.00000000
                    24     1      -1.015291      0.00000000
                    24     2      -0.808170      0.00144688
                    24     3      -0.758322      0.00000000
                    24     4      -0.339739      0.99855312
                    24     5       1.448318      1.00000000
                    25     1      -1.003529      0.00000000
                    25     2      -0.968529      0.00508485
                    25     3      -0.883293      0.00000000
                    25     4      -0.355682      0.99491515
                    25     5       1.214044      1.00000000
                    26     1      -1.201114      0.00000000
                    26     2      -1.125476      0.01127145
                    26     3      -0.900066      0.00000000
                    26     4      -0.418848      0.98872855
                    26     5       0.776788      1.00000000
                    27     1      -1.557190      0.00000000
                    27     2      -1.112654      0.13243285
                    27     3      -0.840897      0.00000000
                    27     4      -0.597647      0.86756715
                    27     5       0.301470      1.00000000
                    28     1      -1.750975      0.00000000
                    28     2      -1.067128      1.00000000
                    28     3      -0.531990      0.00000000
                    28     4      -0.523666      0.00000000
                    28     5       0.551444      1.00000000
                    29     1      -1.594093      0.00000000
                    29     2      -0.820244      0.51759511
                    29     3      -0.551378      0.00000000
                    29     4      -0.508568      0.48240489
                    29     5       0.746496      1.00000000
                    30     1      -1.228625      0.00000000
                    30     2      -0.803094      0.02384054
                    30     3      -0.611572      0.00000000
                    30     4      -0.351548      0.97615946
                    30     5       1.246190      1.00000000
                    31     1      -0.957283      0.00000000
                    31     2      -0.836060      0.00194015
                    31     3      -0.666728      0.00000000
                    31     4      -0.255164      0.99805985
                    31     5       1.758013      1.00000000
                    32     1      -0.813511      0.00000000
                    32     2      -0.799357      0.00018951
                    32     3      -0.697838      0.00000000
                    32     4      -0.219785      0.99981049
                    32     5       2.048743      1.00000000
                    33     1      -0.813511      0.00000000
                    33     2      -0.799357      0.00018951
                    33     3      -0.697838      0.00000000
                    33     4      -0.219785      0.99981049
                    33     5       2.048743      1.00000000
                    34     1      -0.957283      0.00000000
                    34     2      -0.836060      0.00194015
                    34     3      -0.666728      0.00000000
                    34     4      -0.255164      0.99805985
                    34     5       1.758013      1.00000000
                    35     1      -1.228625      0.00000000
                    35     2      -0.803094      0.02384054
                    35     3      -0.611572      0.00000000
                    35     4      -0.351548      0.97615946
                    35     5       1.246190      1.00000000
                    36     1      -1.594093      0.00000000
                    36     2      -0.820244      0.51759511
                    36     3      -0.551378      0.00000000
                    36     4      -0.508568      0.48240489
                    36     5       0.746496      1.00000000
                    37     1      -1.819711      0.00000000
                    37     2      -1.065184      1.00000000
                    37     3      -0.321202      0.00000000
                    37     4      -0.318596      0.00000000
                    37     5       0.831281      1.00000000
                    38     1      -1.623323      0.00000000
                    38     2      -0.715698      0.91998228
                    38     3      -0.352761      0.08001772
                    38     4      -0.348519      0.00000000
                    38     5       1.020866      1.00000000
                    39     1      -1.257806      0.00000000
                    39     2      -0.504117      0.10549091
                    39     3      -0.408514      0.00000000
                    39     4      -0.328787      0.89450909
                    39     5       1.543782      1.00000000
                    40     1      -0.988151      0.00000000
                    40     2      -0.569593      0.00292228
                    40     3      -0.462866      0.00000000
                    40     4      -0.218680      0.99707772
                    40     5       2.129336      1.00000000
                    41     1      -0.845808      0.00000000
                    41     2      -0.608686      0.00013591
                    41     3      -0.492451      0.00000000
                    41     4      -0.177631      0.99986409
                    41     5       2.496427      1.00000000
                    42     1      -0.845808      0.00000000
                    42     2      -0.608686      0.00013591
                    42     3      -0.492451      0.00000000
                    42     4      -0.177631      0.99986409
                    42     5       2.496427      1.00000000
                    43     1      -0.988151      0.00000000
                    43     2      -0.569593      0.00292228
                    43     3      -0.462866      0.00000000
                    43     4      -0.218680      0.99707772
                    43     5       2.129336      1.00000000
                    44     1      -1.257806      0.00000000
                    44     2      -0.504117      0.10549091
                    44     3      -0.408514      0.00000000
                    44     4      -0.328787      0.89450909
                    44     5       1.543782      1.00000000
                    45     1      -1.623323      0.00000000
                    45     2      -0.715698      0.91998228
                    45     3      -0.352761      0.08001772
                    45     4      -0.348519      0.00000000
                    45     5       1.020866      1.00000000
                    46     1      -1.846976      0.00000000
                    46     2      -1.065088      1.00000000
                    46     3      -0.249797      0.00000000
                    46     4      -0.243343      0.00000000
                    46     5       0.926489      1.00000000
                    47     1      -1.631828      0.00000000
                    47     2      -0.697221      1.00000000
                    47     3      -0.277419      0.00000000
                    47     4      -0.276902      0.00000000
                    47     5       1.113282      1.00000000
                    48     1      -1.267777      0.00000000
                    48     2      -0.361696      0.00000000
                    48     3      -0.351552      1.00000000
                    48     4      -0.336220      0.00000000
                    48     5       1.640957      1.00000000
                    49     1      -0.999075      0.00000000
                    49     2      -0.448697      0.00000000
                    49     3      -0.391186      0.00000000
                    49     4      -0.211451      1.00000000
                    49     5       2.255568      1.00000000
                    50     1      -0.856808      0.00000000
                    50     2      -0.496466      0.00000000
                    50     3      -0.422059      0.00000000
                    50     4      -0.167817      1.00000000
                    50     5       2.660594      1.00000000
                    51     1      -0.856808      0.00000000
                    51     2      -0.496466      0.00000000
                    51     3      -0.422059      0.00000000
                    51     4      -0.167817      1.00000000
                    51     5       2.660594      1.00000000
                    52     1      -0.999075      0.00000000
                    52     2      -0.448697      0.00000000
                    52     3      -0.391186      0.00000000
                    52     4      -0.211451      1.00000000
                    52     5       2.255568      1.00000000
                    53     1      -1.267777      0.00000000
                    53     2      -0.361696      0.00000000
                    53     3      -0.351552      1.00000000
                    53     4      -0.336220      0.00000000
                    53     5       1.640957      1.00000000
                    54     1      -1.631828      0.00000000
                    54     2      -0.697221      1.00000000
                    54     3      -0.277419      0.00000000
                    54     4      -0.276902      0.00000000
                    54     5       1.113282      1.00000000
                    55     1      -1.819711      0.00000000
                    55     2      -1.065184      1.00000000
                    55     3      -0.321202      0.00000000
                    55     4      -0.318596      0.00000000
                    55     5       0.831281      1.00000000
                    56     1      -1.623323      0.00000000
                    56     2      -0.715698      0.91998228
                    56     3      -0.352761      0.08001772
                    56     4      -0.348519      0.00000000
                    56     5       1.020866      1.00000000
                    57     1      -1.257806      0.00000000
                    57     2      -0.504117      0.10549091
                    57     3      -0.408514      0.00000000
                    57     4      -0.328787      0.89450909
                    57     5       1.543782      1.00000000
                    58     1      -0.988151      0.00000000
                    58     2      -0.569593      0.00292228
                    58     3      -0.462866      0.00000000
                    58     4      -0.218680      0.99707772
                    58     5       2.129336      1.00000000
                    59     1      -0.845808      0.00000000
                    59     2      -0.608686      0.00013591
                    59     3      -0.492451      0.00000000
                    59     4      -0.177631      0.99986409
                    59     5       2.496427      1.00000000
                    60     1      -0.845808      0.00000000
                    60     2      -0.608686      0.00013591
                    60     3      -0.492451      0.00000000
                    60     4      -0.177631      0.99986409
                    60     5       2.496427      1.00000000
                    61     1      -0.988151      0.00000000
                    61     2      -0.569593      0.00292228
                    61     3      -0.462866      0.00000000
                    61     4      -0.218680      0.99707772
                    61     5       2.129336      1.00000000
                    62     1      -1.257806      0.00000000
                    62     2      -0.504117      0.10549091
                    62     3      -0.408514      0.00000000
                    62     4      -0.328787      0.89450909
                    62     5       1.543782      1.00000000
                    63     1      -1.623323      0.00000000
                    63     2      -0.715698      0.91998228
                    63     3      -0.352761      0.08001772
                    63     4      -0.348519      0.00000000
                    63     5       1.020866      1.00000000
                    64     1      -1.750975      0.00000000
                    64     2      -1.067128      1.00000000
                    64     3      -0.531990      0.00000000
                    64     4      -0.523666      0.00000000
                    64     5       0.551444      1.00000000
                    65     1      -1.594093      0.00000000
                    65     2      -0.820244      0.51759511
                    65     3      -0.551378      0.00000000
                    65     4      -0.508568      0.48240489
                    65     5       0.746496      1.00000000
                    66     1      -1.228625      0.00000000
                    66     2      -0.803094      0.02384054
                    66     3      -0.611572      0.00000000
                    66     4      -0.351548      0.97615946
                    66     5       1.246190      1.00000000
                    67     1      -0.957283      0.00000000
                    67     2      -0.836060      0.00194015
                    67     3      -0.666728      0.00000000
                    67     4      -0.255164      0.99805985
                    67     5       1.758013      1.00000000
                    68     1      -0.813511      0.00000000
                    68     2      -0.799357      0.00018951
                    68     3      -0.697838      0.00000000
                    68     4      -0.219785      0.99981049
                    68     5       2.048743      1.00000000
                    69     1      -0.813511      0.00000000
                    69     2      -0.799357      0.00018951
                    69     3      -0.697838      0.00000000
                    69     4      -0.219785      0.99981049
                    69     5       2.048743      1.00000000
                    70     1      -0.957283      0.00000000
                    70     2      -0.836060      0.00194015
                    70     3      -0.666728      0.00000000
                    70     4      -0.255164      0.99805985
                    70     5       1.758013      1.00000000
                    71     1      -1.228625      0.00000000
                    71     2      -0.803094      0.02384054
                    71     3      -0.611572      0.00000000
                    71     4      -0.351548      0.97615946
                    71     5       1.246190      1.00000000
                    72     1      -1.594093      0.00000000
                    72     2      -0.820244      0.51759511
                    72     3      -0.551378      0.00000000
                    72     4      -0.508568      0.48240489
                    72     5       0.746496      1.00000000
                    73     1      -1.690055      0.00000000
                    73     2      -1.070236      1.00000000
                    73     3      -0.829982      0.00000000
                    73     4      -0.811824      0.00000000
                    73     5       0.105834      1.00000000
                    74     1      -1.557190      0.00000000
                    74     2      -1.112654      0.13243285
                    74     3      -0.840897      0.00000000
                    74     4      -0.597647      0.86756715
                    74     5       0.301470      1.00000000
                    75     1      -1.201114      0.00000000
                    75     2      -1.125476      0.01127145
                    75     3      -0.900066      0.00000000
                    75     4      -0.418848      0.98872855
                    75     5       0.776788      1.00000000
                    76     1      -1.003529      0.00000000
                    76     2      -0.968529      0.00508485
                    76     3      -0.883293      0.00000000
                    76     4      -0.355682      0.99491515
                    76     5       1.214044      1.00000000
                    77     1      -1.015291      0.00000000
                    77     2      -0.808170      0.00144688
                    77     3      -0.758322      0.00000000
                    77     4      -0.339739      0.99855312
                    77     5       1.448318      1.00000000
                    78     1      -1.015291      0.00000000
                    78     2      -0.808170      0.00144688
                    78     3      -0.758322      0.00000000
                    78     4      -0.339739      0.99855312
                    78     5       1.448318      1.00000000
                    79     1      -1.003529      0.00000000
                    79     2      -0.968529      0.00508485
                    79     3      -0.883293      0.00000000
                    79     4      -0.355682      0.99491515
                    79     5       1.214044      1.00000000
                    80     1      -1.201114      0.00000000
                    80     2      -1.125476      0.01127145
                    80     3      -0.900066      0.00000000
                    80     4      -0.418848      0.98872855
                    80     5       0.776788      1.00000000
                    81     1      -1.557190      0.00000000
                    81     2      -1.112654      0.13243285
                    81     3      -0.840897      0.00000000
                    81     4      -0.597647      0.86756715
                    81     5       0.301470      1.00000000
                    82     1      -1.686293      0.02439102
                    82     2      -1.074152      0.99880975
                    82     3      -1.071869      0.00000000
                    82     4      -1.067150      0.00000000
                    82     5      -0.458486      0.97679923
                    83     1      -1.608707      0.00000000
                    83     2      -1.433272      0.05177545
                    83     3      -1.085390      0.00000000
                    83     4      -0.677532      0.94827608
                    83     5      -0.227507      0.99994847
                    84     1      -1.379970      0.00000000
                    84     2      -1.203318      0.04910463
                    84     3      -1.037343      0.00000000
                    84     4      -0.612837      0.95089537
                    84     5       0.296280      1.00000000
                    85     1      -1.380171      0.00000000
                    85     2      -0.921324      0.09305809
                    85     3      -0.836941      0.00000000
                    85     4      -0.607954      0.90694191
                    85     5       0.714955      1.00000000
                    86     1      -1.409782      0.00000000
                    86     2      -0.735261      0.12458799
                    86     3      -0.701519      0.00000000
                    86     4      -0.630658      0.87541201
                    86     5       0.933429      1.00000000
                    87     1      -1.409782      0.00000000
                    87     2      -0.735261      0.12458799
                    87     3      -0.701519      0.00000000
                    87     4      -0.630658      0.87541201
                    87     5       0.933429      1.00000000
                    88     1      -1.380171      0.00000000
                    88     2      -0.921324      0.09305809
                    88     3      -0.836941      0.00000000
                    88     4      -0.607954      0.90694191
                    88     5       0.714955      1.00000000
                    89     1      -1.379970      0.00000000
                    89     2      -1.203318      0.04910463
                    89     3      -1.037343      0.00000000
                    89     4      -0.612837      0.95089537
                    89     5       0.296280      1.00000000
                    90     1      -1.608707      0.00000000
                    90     2      -1.433272      0.05177545
                    90     3      -1.085390      0.00000000
                    90     4      -0.677532      0.94827608
                    90     5      -0.227507      0.99994847
                    91     1      -1.686293      0.02439102
                    91     2      -1.074152      0.99880975
                    91     3      -1.071869      0.00000000
                    91     4      -1.067150      0.00000000
                    91     5      -0.458486      0.97679923
                    92     1      -1.608707      0.00000000
                    92     2      -1.433272      0.05177545
                    92     3      -1.085390      0.00000000
                    92     4      -0.677532      0.94827608
                    92     5      -0.227507      0.99994847
                    93     1      -1.379970      0.00000000
                    93     2      -1.203318      0.04910463
                    93     3      -1.037343      0.00000000
                    93     4      -0.612837      0.95089537
                    93     5       0.296280      1.00000000
                    94     1      -1.380171      0.00000000
                    94     2      -0.921324      0.09305809
                    94     3      -0.836941      0.00000000
                    94     4      -0.607954      0.90694191
                    94     5       0.714955      1.00000000
                    95     1      -1.409782      0.00000000
                    95     2      -0.735261      0.12458799
                    95     3      -0.701519      0.00000000
                    95     4      -0.630658      0.87541201
                    95     5       0.933429      1.00000000
                    96     1      -1.409782      0.00000000
                    96     2      -0.735261      0.12458799
                    96     3      -0.701519      0.00000000
                    96     4      -0.630658      0.87541201
                    96     5       0.933429      1.00000000
                    97     1      -1.380171      0.00000000
                    97     2      -0.921324      0.09305809
                    97     3      -0.836941      0.00000000
                    97     4      -0.607954      0.90694191
                    97     5       0.714955      1.00000000
                    98     1      -1.379970      0.00000000
                    98     2      -1.203318      0.04910463
                    98     3      -1.037343      0.00000000
                    98     4      -0.612837      0.95089537
                    98     5       0.296280      1.00000000
                    99     1      -1.608707      0.00000000
                    99     2      -1.433272      0.05177545
                    99     3      -1.085390      0.00000000
                    99     4      -0.677532      0.94827608
                    99     5      -0.227507      0.99994847
                   100     1      -1.532877      0.00000000
                   100     2      -1.343938      0.12624018
                   100     3      -1.047429      0.00000000
                   100     4      -0.829598      0.87375982
                   100     5      -0.157232      1.00000000
                   101     1      -1.431041      0.03061156
                   101     2      -1.422527      0.01551941
                   101     3      -1.290939      0.00597903
                   101     4      -0.252519      0.96340941
                   101     5      -0.166406      0.98448059
                   102     1      -1.321803      0.00000000
                   102     2      -1.198748      0.00000000
                   102     3      -1.171679      0.02187589
                   102     4      -0.192282      0.97812411
                   102     5       0.365979      1.00000000
                   103     1      -1.325672      0.00000000
                   103     2      -0.937088      0.00000000
                   103     3      -0.883526      0.02651401
                   103     4      -0.231352      0.97348599
                   103     5       0.818404      1.00000000
                   104     1      -1.342459      0.00000000
                   104     2      -0.778820      0.00000000
                   104     3      -0.692415      0.00939110
                   104     4      -0.273819      0.99060890
                   104     5       1.049342      1.00000000
                   105     1      -1.342459      0.00000000
                   105     2      -0.778820      0.00000000
                   105     3      -0.692415      0.00939110
                   105     4      -0.273819      0.99060890
                   105     5       1.049342      1.00000000
                   106     1      -1.325672      0.00000000
                   106     2      -0.937088      0.00000000
                   106     3      -0.883526      0.02651401
                   106     4      -0.231352      0.97348599
                   106     5       0.818404      1.00000000
                   107     1      -1.321803      0.00000000
                   107     2      -1.198748      0.00000000
                   107     3      -1.171679      0.02187589
                   107     4      -0.192282      0.97812411
                   107     5       0.365979      1.00000000
                   108     1      -1.431041      0.03061156
                   108     2      -1.422527      0.01551941
                   108     3      -1.290939      0.00597903
                   108     4      -0.252519      0.96340941
                   108     5      -0.166406      0.98448059
                   109     1      -1.389802      0.00000000
                   109     2      -1.090074      0.27612847
                   109     3      -0.850513      0.00000000
                   109     4      -0.734846      0.72387153
                   109     5       0.369182      1.00000000
                   110     1      -1.407911      0.00533721
                   110     2      -1.085728      0.05789014
                   110     3      -1.026319      0.01925873
                   110     4      -0.243200      0.91751393
                   110     5       0.431570      1.00000000
                   111     1      -1.187357      0.00000000
                   111     2      -1.090888      0.00000000
                   111     3      -1.016329      0.00000000
                   111     4       0.079679      1.00000000
                   111     5       0.773908      1.00000000
                   112     1      -1.020124      0.00000000
                   112     2      -0.970629      0.00000000
                   112     3      -0.887296      0.00000000
                   112     4       0.124252      1.00000000
                   112     5       1.219154      1.00000000
                   113     1      -1.026755      0.00000000
                   113     2      -0.830517      0.00000000
                   113     3      -0.716460      0.00000000
                   113     4       0.115059      1.00000000
                   113     5       1.466849      1.00000000
                   114     1      -1.026755      0.00000000
                   114     2      -0.830517      0.00000000
                   114     3      -0.716460      0.00000000
                   114     4       0.115059      1.00000000
                   114     5       1.466849      1.00000000
                   115     1      -1.020124      0.00000000
                   115     2      -0.970629      0.00000000
                   115     3      -0.887296      0.00000000
                   115     4       0.124252      1.00000000
                   115     5       1.219154      1.00000000
                   116     1      -1.187357      0.00000000
                   116     2      -1.090888      0.00000000
                   116     3      -1.016329      0.00000000
                   116     4       0.079679      1.00000000
                   116     5       0.773908      1.00000000
                   117     1      -1.407911      0.00533721
                   117     2      -1.085728      0.05789014
                   117     3      -1.026319      0.01925873
                   117     4      -0.243200      0.91751393
                   117     5       0.431570      1.00000000
                   118     1      -1.408202      0.00000000
                   118     2      -0.894339      0.77898987
                   118     3      -0.565035      0.22101013
                   118     4      -0.557263      0.00000000
                   118     5       0.805892      1.00000000
                   119     1      -1.414457      0.00382651
                   119     2      -0.737955      0.18680167
                   119     3      -0.684077      0.01114993
                   119     4      -0.247712      0.79822190
                   119     5       0.908156      1.00000000
                   120     1      -1.174489      0.00000000
                   120     2      -0.788178      0.00000000
                   120     3      -0.681452      0.00000000
                   120     4       0.102440      1.00000000
                   120     5       1.277220      1.00000000
                   121     1      -0.925757      0.00000000
                   121     2      -0.805399      0.00000000
                   121     3      -0.695037      0.00000000
                   121     4       0.222208      1.00000000
                   121     5       1.757255      1.00000000
                   122     1      -0.792949      0.00000000
                   122     2      -0.745379      0.00000000
                   122     3      -0.708103      0.00000000
                   122     4       0.245471      1.00000000
                   122     5       2.048860      1.00000000
                   123     1      -0.792949      0.00000000
                   123     2      -0.745379      0.00000000
                   123     3      -0.708103      0.00000000
                   123     4       0.245471      1.00000000
                   123     5       2.048860      1.00000000
                   124     1      -0.925757      0.00000000
                   124     2      -0.805399      0.00000000
                   124     3      -0.695037      0.00000000
                   124     4       0.222208      1.00000000
                   124     5       1.757255      1.00000000
                   125     1      -1.174489      0.00000000
                   125     2      -0.788178      0.00000000
                   125     3      -0.681452      0.00000000
                   125     4       0.102440      1.00000000
                   125     5       1.277220      1.00000000
                   126     1      -1.414457      0.00382651
                   126     2      -0.737955      0.18680167
                   126     3      -0.684077      0.01114993
                   126     4      -0.247712      0.79822190
                   126     5       0.908156      1.00000000
                   127     1      -1.437083      0.00000000
                   127     2      -0.841490      0.96703944
                   127     3      -0.364153      0.03296056
                   127     4      -0.345287      0.00000000
                   127     5       1.077454      1.00000000
                   128     1      -1.429132      0.00320013
                   128     2      -0.502099      0.54789770
                   128     3      -0.434290      0.00304152
                   128     4      -0.251748      0.44586066
                   128     5       1.194802      1.00000000
                   129     1      -1.178623      0.00000000
                   129     2      -0.512484      0.00000000
                   129     3      -0.410965      0.00000000
                   129     4       0.069893      1.00000000
                   129     5       1.597159      1.00000000
                   130     1      -0.928974      0.00000000
                   130     2      -0.563175      0.00000000
                   130     3      -0.449496      0.00000000
                   130     4       0.225601      1.00000000
                   130     5       2.139515      1.00000000
                   131     1      -0.783543      0.00000000
                   131     2      -0.582207      0.00000000
                   131     3      -0.479536      0.00000000
                   131     4       0.260869      1.00000000
                   131     5       2.499030      1.00000000
                   132     1      -0.783543      0.00000000
                   132     2      -0.582207      0.00000000
                   132     3      -0.479536      0.00000000
                   132     4       0.260869      1.00000000
                   132     5       2.499030      1.00000000
                   133     1      -0.928974      0.00000000
                   133     2      -0.563175      0.00000000
                   133     3      -0.449496      0.00000000
                   133     4       0.225601      1.00000000
                   133     5       2.139515      1.00000000
                   134     1      -1.178623      0.00000000
                   134     2      -0.512484      0.00000000
                   134     3      -0.410965      0.00000000
                   134     4       0.069893      1.00000000
                   134     5       1.597159      1.00000000
                   135     1      -1.429132      0.00320013
                   135     2      -0.502099      0.54789770
                   135     3      -0.434290      0.00304152
                   135     4      -0.251748      0.44586066
                   135     5       1.194802      1.00000000
                   136     1      -1.446542      0.00000000
                   136     2      -0.830792      1.00000000
                   136     3      -0.284854      0.00000000
                   136     4      -0.269798      0.00000000
                   136     5       1.168925      1.00000000
                   137     1      -1.435720      0.00300549
                   137     2      -0.418052      0.99699451
                   137     3      -0.343443      0.00000000
                   137     4      -0.254532      0.00000000
                   137     5       1.288704      1.00000000
                   138     1      -1.181877      0.00000000
                   138     2      -0.412076      0.00000000
                   138     3      -0.288255      0.00000000
                   138     4       0.036421      1.00000000
                   138     5       1.700542      1.00000000
                   139     1      -0.931537      0.00000000
                   139     2      -0.459036      0.00000000
                   139     3      -0.349207      0.00000000
                   139     4       0.213119      1.00000000
                   139     5       2.269087      1.00000000
                   140     1      -0.787081      0.00000000
                   140     2      -0.475934      0.00000000
                   140     3      -0.391157      0.00000000
                   140     4       0.253204      1.00000000
                   140     5       2.665861      1.00000000
                   141     1      -0.787081      0.00000000
                   141     2      -0.475934      0.00000000
                   141     3      -0.391157      0.00000000
                   141     4       0.253204      1.00000000
                   141     5       2.665861      1.00000000
                   142     1      -0.931537      0.00000000
                   142     2      -0.459036      0.00000000
                   142     3      -0.349207      0.00000000
                   142     4       0.213119      1.00000000
                   142     5       2.269087      1.00000000
                   143     1      -1.181877      0.00000000
                   143     2      -0.412076      0.00000000
                   143     3      -0.288255      0.00000000
                   143     4       0.036421      1.00000000
                   143     5       1.700542      1.00000000
                   144     1      -1.435720      0.00300549
                   144     2      -0.418052      0.99699451
                   144     3      -0.343443      0.00000000
                   144     4      -0.254532      0.00000000
                   144     5       1.288704      1.00000000
                   145     1      -1.437083      0.00000000
                   145     2      -0.841490      0.96703944
                   145     3      -0.364153      0.03296056
                   145     4      -0.345287      0.00000000
                   145     5       1.077454      1.00000000
                   146     1      -1.429132      0.00320013
                   146     2      -0.502099      0.54789770
                   146     3      -0.434290      0.00304152
                   146     4      -0.251748      0.44586066
                   146     5       1.194802      1.00000000
                   147     1      -1.178623      0.00000000
                   147     2      -0.512484      0.00000000
                   147     3      -0.410965      0.00000000
                   147     4       0.069893      1.00000000
                   147     5       1.597159      1.00000000
                   148     1      -0.928974      0.00000000
                   148     2      -0.563175      0.00000000
                   148     3      -0.449496      0.00000000
                   148     4       0.225601      1.00000000
                   148     5       2.139515      1.00000000
                   149     1      -0.783543      0.00000000
                   149     2      -0.582207      0.00000000
                   149     3      -0.479536      0.00000000
                   149     4       0.260869      1.00000000
                   149     5       2.499030      1.00000000
                   150     1      -0.783543      0.00000000
                   150     2      -0.582207      0.00000000
                   150     3      -0.479536      0.00000000
                   150     4       0.260869      1.00000000
                   150     5       2.499030      1.00000000
                   151     1      -0.928974      0.00000000
                   151     2      -0.563175      0.00000000
                   151     3      -0.449496      0.00000000
                   151     4       0.225601      1.00000000
                   151     5       2.139515      1.00000000
                   152     1      -1.178623      0.00000000
                   152     2      -0.512484      0.00000000
                   152     3      -0.410965      0.00000000
                   152     4       0.069893      1.00000000
                   152     5       1.597159      1.00000000
                   153     1      -1.429132      0.00320013
                   153     2      -0.502099      0.54789770
                   153     3      -0.434290      0.00304152
                   153     4      -0.251748      0.44586066
                   153     5       1.194802      1.00000000
                   154     1      -1.408202      0.00000000
                   154     2      -0.894339      0.77898987
                   154     3      -0.565035      0.22101013
                   154     4      -0.557263      0.00000000
                   154     5       0.805892      1.00000000
                   155     1      -1.414457      0.00382651
                   155     2      -0.737955      0.18680167
                   155     3      -0.684077      0.01114993
                   155     4      -0.247712      0.79822190
                   155     5       0.908156      1.00000000
                   156     1      -1.174489      0.00000000
                   156     2      -0.788178      0.00000000
                   156     3      -0.681452      0.00000000
                   156     4       0.102440      1.00000000
                   156     5       1.277220      1.00000000
                   157     1      -0.925757      0.00000000
                   157     2      -0.805399      0.00000000
                   157     3      -0.695037      0.00000000
                   157     4       0.222208      1.00000000
                   157     5       1.757255      1.00000000
                   158     1      -0.792949      0.00000000
                   158     2      -0.745379      0.00000000
                   158     3      -0.708103      0.00000000
                   158     4       0.245471      1.00000000
                   158     5       2.048860      1.00000000
                   159     1      -0.792949      0.00000000
                   159     2      -0.745379      0.00000000
                   159     3      -0.708103      0.00000000
                   159     4       0.245471      1.00000000
                   159     5       2.048860      1.00000000
                   160     1      -0.925757      0.00000000
                   160     2      -0.805399      0.00000000
                   160     3      -0.695037      0.00000000
                   160     4       0.222208      1.00000000
                   160     5       1.757255      1.00000000
                   161     1      -1.174489      0.00000000
                   161     2      -0.788178      0.00000000
                   161     3      -0.681452      0.00000000
                   161     4       0.102440      1.00000000
                   161     5       1.277220      1.00000000
                   162     1      -1.414457      0.00382651
                   162     2      -0.737955      0.18680167
                   162     3      -0.684077      0.01114993
                   162     4      -0.247712      0.79822190
                   162     5       0.908156      1.00000000
                   163     1      -1.389802      0.00000000
                   163     2      -1.090074      0.27612846
                   163     3      -0.850513      0.00000000
                   163     4      -0.734846      0.72387154
                   163     5       0.369182      1.00000000
                   164     1      -1.407911      0.00533721
                   164     2      -1.085728      0.05789014
                   164     3      -1.026319      0.01925873
                   164     4      -0.243200      0.91751393
                   164     5       0.431570      1.00000000
                   165     1      -1.187357      0.00000000
                   165     2      -1.090888      0.00000000
                   165     3      -1.016329      0.00000000
                   165     4       0.079679      1.00000000
                   165     5       0.773908      1.00000000
                   166     1      -1.020124      0.00000000
                   166     2      -0.970629      0.00000000
                   166     3      -0.887296      0.00000000
                   166     4       0.124252      1.00000000
                   166     5       1.219154      1.00000000
                   167     1      -1.026755      0.00000000
                   167     2      -0.830517      0.00000000
[...]
                   839     3      -0.684077      0.01114993
                   839     4      -0.247712      0.79822190
                   839     5       0.908156      1.00000000
                   840     1      -1.174489      0.00000000
                   840     2      -0.788178      0.00000000
                   840     3      -0.681452      0.00000000
                   840     4       0.102440      1.00000000
                   840     5       1.277220      1.00000000
                   841     1      -0.925757      0.00000000
                   841     2      -0.805399      0.00000000
                   841     3      -0.695037      0.00000000
                   841     4       0.222208      1.00000000
                   841     5       1.757255      1.00000000
                   842     1      -0.792949      0.00000000
                   842     2      -0.745379      0.00000000
                   842     3      -0.708103      0.00000000
                   842     4       0.245471      1.00000000
                   842     5       2.048860      1.00000000
                   843     1      -0.792949      0.00000000
                   843     2      -0.745379      0.00000000
                   843     3      -0.708103      0.00000000
                   843     4       0.245471      1.00000000
                   843     5       2.048860      1.00000000
                   844     1      -0.925757      0.00000000
                   844     2      -0.805399      0.00000000
                   844     3      -0.695037      0.00000000
                   844     4       0.222208      1.00000000
                   844     5       1.757255      1.00000000
                   845     1      -1.174489      0.00000000
                   845     2      -0.788178      0.00000000
                   845     3      -0.681452      0.00000000
                   845     4       0.102440      1.00000000
                   845     5       1.277220      1.00000000
                   846     1      -1.414457      0.00382651
                   846     2      -0.737955      0.18680167
                   846     3      -0.684077      0.01114993
                   846     4      -0.247712      0.79822190
                   846     5       0.908156      1.00000000
                   847     1      -1.437083      0.00000000
                   847     2      -0.841490      0.96703944
                   847     3      -0.364153      0.03296056
                   847     4      -0.345287      0.00000000
                   847     5       1.077454      1.00000000
                   848     1      -1.429132      0.00320013
                   848     2      -0.502099      0.54789770
                   848     3      -0.434290      0.00304152
                   848     4      -0.251748      0.44586066
                   848     5       1.194802      1.00000000
                   849     1      -1.178623      0.00000000
                   849     2      -0.512484      0.00000000
                   849     3      -0.410965      0.00000000
                   849     4       0.069893      1.00000000
                   849     5       1.597159      1.00000000
                   850     1      -0.928974      0.00000000
                   850     2      -0.563175      0.00000000
                   850     3      -0.449496      0.00000000
                   850     4       0.225601      1.00000000
                   850     5       2.139515      1.00000000
                   851     1      -0.783543      0.00000000
                   851     2      -0.582207      0.00000000
                   851     3      -0.479536      0.00000000
                   851     4       0.260869      1.00000000
                   851     5       2.499030      1.00000000
                   852     1      -0.783543      0.00000000
                   852     2      -0.582207      0.00000000
                   852     3      -0.479536      0.00000000
                   852     4       0.260869      1.00000000
                   852     5       2.499030      1.00000000
                   853     1      -0.928974      0.00000000
                   853     2      -0.563175      0.00000000
                   853     3      -0.449496      0.00000000
                   853     4       0.225601      1.00000000
                   853     5       2.139515      1.00000000
                   854     1      -1.178623      0.00000000
                   854     2      -0.512484      0.00000000
                   854     3      -0.410965      0.00000000
                   854     4       0.069893      1.00000000
                   854     5       1.597159      1.00000000
                   855     1      -1.429132      0.00320013
                   855     2      -0.502099      0.54789770
                   855     3      -0.434290      0.00304152
                   855     4      -0.251748      0.44586066
                   855     5       1.194802      1.00000000
                   856     1      -1.446542      0.00000000
                   856     2      -0.830792      1.00000000
                   856     3      -0.284854      0.00000000
                   856     4      -0.269798      0.00000000
                   856     5       1.168925      1.00000000
                   857     1      -1.435720      0.00300549
                   857     2      -0.418052      0.99699451
                   857     3      -0.343443      0.00000000
                   857     4      -0.254532      0.00000000
                   857     5       1.288704      1.00000000
                   858     1      -1.181877      0.00000000
                   858     2      -0.412076      0.00000000
                   858     3      -0.288255      0.00000000
                   858     4       0.036421      1.00000000
                   858     5       1.700542      1.00000000
                   859     1      -0.931537      0.00000000
                   859     2      -0.459036      0.00000000
                   859     3      -0.349207      0.00000000
                   859     4       0.213119      1.00000000
                   859     5       2.269087      1.00000000
                   860     1      -0.787081      0.00000000
                   860     2      -0.475934      0.00000000
                   860     3      -0.391157      0.00000000
                   860     4       0.253204      1.00000000
                   860     5       2.665861      1.00000000
                   861     1      -0.787081      0.00000000
                   861     2      -0.475934      0.00000000
                   861     3      -0.391157      0.00000000
                   861     4       0.253204      1.00000000
                   861     5       2.665861      1.00000000
                   862     1      -0.931537      0.00000000
                   862     2      -0.459036      0.00000000
                   862     3      -0.349207      0.00000000
                   862     4       0.213119      1.00000000
                   862     5       2.269087      1.00000000
                   863     1      -1.181877      0.00000000
                   863     2      -0.412076      0.00000000
                   863     3      -0.288255      0.00000000
                   863     4       0.036421      1.00000000
                   863     5       1.700542      1.00000000
                   864     1      -1.435720      0.00300549
                   864     2      -0.418052      0.99699451
                   864     3      -0.343443      0.00000000
                   864     4      -0.254532      0.00000000
                   864     5       1.288704      1.00000000
                   865     1      -1.437083      0.00000000
                   865     2      -0.841490      0.96703944
                   865     3      -0.364153      0.03296056
                   865     4      -0.345287      0.00000000
                   865     5       1.077454      1.00000000
                   866     1      -1.429132      0.00320013
                   866     2      -0.502099      0.54789770
                   866     3      -0.434290      0.00304152
                   866     4      -0.251748      0.44586066
                   866     5       1.194802      1.00000000
                   867     1      -1.178623      0.00000000
                   867     2      -0.512484      0.00000000
                   867     3      -0.410965      0.00000000
                   867     4       0.069893      1.00000000
                   867     5       1.597159      1.00000000
                   868     1      -0.928974      0.00000000
                   868     2      -0.563175      0.00000000
                   868     3      -0.449496      0.00000000
                   868     4       0.225601      1.00000000
                   868     5       2.139515      1.00000000
                   869     1      -0.783543      0.00000000
                   869     2      -0.582207      0.00000000
                   869     3      -0.479536      0.00000000
                   869     4       0.260869      1.00000000
                   869     5       2.499030      1.00000000
                   870     1      -0.783543      0.00000000
                   870     2      -0.582207      0.00000000
                   870     3      -0.479536      0.00000000
                   870     4       0.260869      1.00000000
                   870     5       2.499030      1.00000000
                   871     1      -0.928974      0.00000000
                   871     2      -0.563175      0.00000000
                   871     3      -0.449496      0.00000000
                   871     4       0.225601      1.00000000
                   871     5       2.139515      1.00000000
                   872     1      -1.178623      0.00000000
                   872     2      -0.512484      0.00000000
                   872     3      -0.410965      0.00000000
                   872     4       0.069893      1.00000000
                   872     5       1.597159      1.00000000
                   873     1      -1.429132      0.00320013
                   873     2      -0.502099      0.54789770
                   873     3      -0.434290      0.00304152
                   873     4      -0.251748      0.44586066
                   873     5       1.194802      1.00000000
                   874     1      -1.408202      0.00000000
                   874     2      -0.894339      0.77898987
                   874     3      -0.565035      0.22101013
                   874     4      -0.557263      0.00000000
                   874     5       0.805892      1.00000000
                   875     1      -1.414457      0.00382651
                   875     2      -0.737955      0.18680167
                   875     3      -0.684077      0.01114993
                   875     4      -0.247712      0.79822190
                   875     5       0.908156      1.00000000
                   876     1      -1.174489      0.00000000
                   876     2      -0.788178      0.00000000
                   876     3      -0.681452      0.00000000
                   876     4       0.102440      1.00000000
                   876     5       1.277220      1.00000000
                   877     1      -0.925757      0.00000000
                   877     2      -0.805399      0.00000000
                   877     3      -0.695037      0.00000000
                   877     4       0.222208      1.00000000
                   877     5       1.757255      1.00000000
                   878     1      -0.792949      0.00000000
                   878     2      -0.745379      0.00000000
                   878     3      -0.708103      0.00000000
                   878     4       0.245471      1.00000000
                   878     5       2.048860      1.00000000
                   879     1      -0.792949      0.00000000
                   879     2      -0.745379      0.00000000
                   879     3      -0.708103      0.00000000
                   879     4       0.245471      1.00000000
                   879     5       2.048860      1.00000000
                   880     1      -0.925757      0.00000000
                   880     2      -0.805399      0.00000000
                   880     3      -0.695037      0.00000000
                   880     4       0.222208      1.00000000
                   880     5       1.757255      1.00000000
                   881     1      -1.174489      0.00000000
                   881     2      -0.788178      0.00000000
                   881     3      -0.681452      0.00000000
                   881     4       0.102440      1.00000000
                   881     5       1.277220      1.00000000
                   882     1      -1.414457      0.00382651
                   882     2      -0.737955      0.18680167
                   882     3      -0.684077      0.01114993
                   882     4      -0.247712      0.79822190
                   882     5       0.908156      1.00000000
                   883     1      -1.389802      0.00000000
                   883     2      -1.090074      0.27612847
                   883     3      -0.850513      0.00000000
                   883     4      -0.734846      0.72387153
                   883     5       0.369182      1.00000000
                   884     1      -1.407911      0.00533721
                   884     2      -1.085728      0.05789014
                   884     3      -1.026319      0.01925873
                   884     4      -0.243200      0.91751393
                   884     5       0.431570      1.00000000
                   885     1      -1.187357      0.00000000
                   885     2      -1.090888      0.00000000
                   885     3      -1.016329      0.00000000
                   885     4       0.079679      1.00000000
                   885     5       0.773908      1.00000000
                   886     1      -1.020124      0.00000000
                   886     2      -0.970629      0.00000000
                   886     3      -0.887296      0.00000000
                   886     4       0.124252      1.00000000
                   886     5       1.219154      1.00000000
                   887     1      -1.026755      0.00000000
                   887     2      -0.830517      0.00000000
                   887     3      -0.716460      0.00000000
                   887     4       0.115059      1.00000000
                   887     5       1.466849      1.00000000
                   888     1      -1.026755      0.00000000
                   888     2      -0.830517      0.00000000
                   888     3      -0.716460      0.00000000
                   888     4       0.115059      1.00000000
                   888     5       1.466849      1.00000000
                   889     1      -1.020124      0.00000000
                   889     2      -0.970629      0.00000000
                   889     3      -0.887296      0.00000000
                   889     4       0.124252      1.00000000
                   889     5       1.219154      1.00000000
                   890     1      -1.187357      0.00000000
                   890     2      -1.090888      0.00000000
                   890     3      -1.016329      0.00000000
                   890     4       0.079679      1.00000000
                   890     5       0.773908      1.00000000
                   891     1      -1.407911      0.00533721
                   891     2      -1.085728      0.05789014
                   891     3      -1.026319      0.01925873
                   891     4      -0.243200      0.91751393
                   891     5       0.431570      1.00000000
                   892     1      -1.532877      0.00000000
                   892     2      -1.343938      0.12624018
                   892     3      -1.047429      0.00000000
                   892     4      -0.829598      0.87375982
                   892     5      -0.157232      1.00000000
                   893     1      -1.431041      0.03061156
                   893     2      -1.422527      0.01551941
                   893     3      -1.290939      0.00597903
                   893     4      -0.252519      0.96340941
                   893     5      -0.166406      0.98448059
                   894     1      -1.321803      0.00000000
                   894     2      -1.198748      0.00000000
                   894     3      -1.171679      0.02187589
                   894     4      -0.192282      0.97812411
                   894     5       0.365979      1.00000000
                   895     1      -1.325672      0.00000000
                   895     2      -0.937088      0.00000000
                   895     3      -0.883526      0.02651401
                   895     4      -0.231352      0.97348599
                   895     5       0.818404      1.00000000
                   896     1      -1.342459      0.00000000
                   896     2      -0.778820      0.00000000
                   896     3      -0.692415      0.00939110
                   896     4      -0.273819      0.99060890
                   896     5       1.049342      1.00000000
                   897     1      -1.342459      0.00000000
                   897     2      -0.778820      0.00000000
                   897     3      -0.692415      0.00939110
                   897     4      -0.273819      0.99060890
                   897     5       1.049342      1.00000000
                   898     1      -1.325672      0.00000000
                   898     2      -0.937088      0.00000000
                   898     3      -0.883526      0.02651401
                   898     4      -0.231352      0.97348599
                   898     5       0.818404      1.00000000
                   899     1      -1.321803      0.00000000
                   899     2      -1.198748      0.00000000
                   899     3      -1.171679      0.02187589
                   899     4      -0.192282      0.97812411
                   899     5       0.365979      1.00000000
                   900     1      -1.431041      0.03061156
                   900     2      -1.422527      0.01551941
                   900     3      -1.290939      0.00597903
                   900     4      -0.252519      0.96340941
                   900     5      -0.166406      0.98448059
 ------------------------------------------------------------------------------

 Time for wannierise            0.336 (sec)

 Writing checkpoint file w2w.chk... done

 *---------------------------------------------------------------------------*
 |                               PLOTTING                                    |
 *---------------------------------------------------------------------------*
 
 
 Calculating interpolated band-structure
 
 Time to calculate interpolated band structure       0.059 (sec)
 
 Time for plotting              0.562 (sec)
 Total Execution Time           1.745 (sec)

 *===========================================================================*
 |                             TIMING INFORMATION                            |
 *===========================================================================*
 |    Tag                                                Ncalls      Time (s)|
 |---------------------------------------------------------------------------|
 |kmesh: get                                        :         1         0.150|
 |overlap: read                                     :         1         0.089|
 |dis: main                                         :         1         0.558|
 |wann: main                                        :         1         0.336|
 |plot: main                                        :         1         0.562|
 *---------------------------------------------------------------------------*
 
 All done: wannier90 exiting
